
                                 *****************
                                 * O   R   C   A *
                                 *****************

                                            #,                                       
                                            ###                                      
                                            ####                                     
                                            #####                                    
                                            ######                                   
                                           ########,                                 
                                     ,,################,,,,,                         
                               ,,#################################,,                 
                          ,,##########################################,,             
                       ,#########################################, ''#####,          
                    ,#############################################,,   '####,        
                  ,##################################################,,,,####,       
                ,###########''''           ''''###############################       
              ,#####''   ,,,,##########,,,,          '''####'''          '####       
            ,##' ,,,,###########################,,,                        '##       
           ' ,,###''''                  '''############,,,                           
         ,,##''                                '''############,,,,        ,,,,,,###''
      ,#''                                            '''#######################'''  
     '                                                          ''''####''''         
             ,#######,   #######,   ,#######,      ##                                
            ,#'     '#,  ##    ##  ,#'     '#,    #''#        ######   ,####,        
            ##       ##  ##   ,#'  ##            #'  '#       #        #'  '#        
            ##       ##  #######   ##           ,######,      #####,   #    #        
            '#,     ,#'  ##    ##  '#,     ,#' ,#      #,         ##   #,  ,#        
             '#######'   ##     ##  '#######'  #'      '#     #####' # '####'        



                  #######################################################
                  #                        -***-                        #
                  #          Department of theory and spectroscopy      #
                  #    Directorship and core code : Frank Neese         #
                  #        Max Planck Institute fuer Kohlenforschung    #
                  #                Kaiser Wilhelm Platz 1               #
                  #                 D-45470 Muelheim/Ruhr               #
                  #                      Germany                        #
                  #                                                     #
                  #                  All rights reserved                #
                  #                        -***-                        #
                  #######################################################


                         Program Version 5.0.2 -  RELEASE  -


 With contributions from (in alphabetic order):
   Daniel Aravena         : Magnetic Suceptibility
   Michael Atanasov       : Ab Initio Ligand Field Theory (pilot matlab implementation)
   Alexander A. Auer      : GIAO ZORA, VPT2 properties, NMR spectrum
   Ute Becker             : Parallelization
   Giovanni Bistoni       : ED, misc. LED, open-shell LED, HFLD
   Martin Brehm           : Molecular dynamics
   Dmytro Bykov           : SCF Hessian
   Vijay G. Chilkuri      : MRCI spin determinant printing, contributions to CSF-ICE
   Dipayan Datta          : RHF DLPNO-CCSD density
   Achintya Kumar Dutta   : EOM-CC, STEOM-CC
   Dmitry Ganyushin       : Spin-Orbit,Spin-Spin,Magnetic field MRCI
   Miquel Garcia          : C-PCM and meta-GGA Hessian, CC/C-PCM, Gaussian charge scheme
   Yang Guo               : DLPNO-NEVPT2, F12-NEVPT2, CIM, IAO-localization
   Andreas Hansen         : Spin unrestricted coupled pair/coupled cluster methods
   Benjamin Helmich-Paris : MC-RPA, TRAH-SCF, COSX integrals
   Lee Huntington         : MR-EOM, pCC
   Robert Izsak           : Overlap fitted RIJCOSX, COSX-SCS-MP3, EOM
   Marcus Kettner         : VPT2
   Christian Kollmar      : KDIIS, OOCD, Brueckner-CCSD(T), CCSD density, CASPT2, CASPT2-K
   Simone Kossmann        : Meta GGA functionals, TD-DFT gradient, OOMP2, MP2 Hessian
   Martin Krupicka        : Initial AUTO-CI
   Lucas Lang             : DCDCAS
   Marvin Lechner         : AUTO-CI (C++ implementation), FIC-MRCC
   Dagmar Lenk            : GEPOL surface, SMD
   Dimitrios Liakos       : Extrapolation schemes; Compound Job, initial MDCI parallelization
   Dimitrios Manganas     : Further ROCIS development; embedding schemes
   Dimitrios Pantazis     : SARC Basis sets
   Anastasios Papadopoulos: AUTO-CI, single reference methods and gradients
   Taras Petrenko         : DFT Hessian,TD-DFT gradient, ASA, ECA, R-Raman, ABS, FL, XAS/XES, NRVS
   Peter Pinski           : DLPNO-MP2, DLPNO-MP2 Gradient
   Christoph Reimann      : Effective Core Potentials
   Marius Retegan         : Local ZFS, SOC
   Christoph Riplinger    : Optimizer, TS searches, QM/MM, DLPNO-CCSD(T), (RO)-DLPNO pert. Triples
   Tobias Risthaus        : Range-separated hybrids, TD-DFT gradient, RPA, STAB
   Michael Roemelt        : Original ROCIS implementation
   Masaaki Saitow         : Open-shell DLPNO-CCSD energy and density
   Barbara Sandhoefer     : DKH picture change effects
   Avijit Sen             : IP-ROCIS
   Kantharuban Sivalingam : CASSCF convergence, NEVPT2, FIC-MRCI
   Bernardo de Souza      : ESD, SOC TD-DFT
   Georgi Stoychev        : AutoAux, RI-MP2 NMR, DLPNO-MP2 response
   Willem Van den Heuvel  : Paramagnetic NMR
   Boris Wezisla          : Elementary symmetry handling
   Frank Wennmohs         : Technical directorship


 We gratefully acknowledge several colleagues who have allowed us to
 interface, adapt or use parts of their codes:
   Stefan Grimme, W. Hujo, H. Kruse, P. Pracht,  : VdW corrections, initial TS optimization,
                  C. Bannwarth, S. Ehlert          DFT functionals, gCP, sTDA/sTD-DF
   Ed Valeev, F. Pavosevic, A. Kumar             : LibInt (2-el integral package), F12 methods
   Garnet Chan, S. Sharma, J. Yang, R. Olivares  : DMRG
   Ulf Ekstrom                                   : XCFun DFT Library
   Mihaly Kallay                                 : mrcc  (arbitrary order and MRCC methods)
   Jiri Pittner, Ondrej Demel                    : Mk-CCSD
   Frank Weinhold                                : gennbo (NPA and NBO analysis)
   Christopher J. Cramer and Donald G. Truhlar   : smd solvation model
   Lars Goerigk                                  : TD-DFT with DH, B97 family of functionals
   V. Asgeirsson, H. Jonsson                     : NEB implementation
   FAccTs GmbH                                   : IRC, NEB, NEB-TS, DLPNO-Multilevel, CI-OPT
                                                   MM, QMMM, 2- and 3-layer-ONIOM, Crystal-QMMM,
                                                   LR-CPCM, SF, NACMEs, symmetry and pop. for TD-DFT,
                                                   nearIR, NL-DFT gradient (VV10), updates on ESD,
                                                   ML-optimized integration grids
   S Lehtola, MJT Oliveira, MAL Marques          : LibXC Library
   Liviu Ungur et al                             : ANISO software


 Your calculation uses the libint2 library for the computation of 2-el integrals
 For citations please refer to: http://libint.valeyev.net

 Your ORCA version has been built with support for libXC version: 5.1.0
 For citations please refer to: https://tddft.org/programs/libxc/

 This ORCA versions uses:
   CBLAS   interface :  Fast vector & matrix operations
   LAPACKE interface :  Fast linear algebra routines
   SCALAPACK package :  Parallel linear algebra routines
   Shared memory     :  Shared parallel matrices
   BLAS/LAPACK       :  OpenBLAS 0.3.15  USE64BITINT DYNAMIC_ARCH NO_AFFINITY SkylakeX SINGLE_THREADED
        Core in use  :  SkylakeX
   Copyright (c) 2011-2014, The OpenBLAS Project


================================================================================

cite the ECPs for Sn [Def2-ECP] as follows:
Ce-Yb(ecp-28): M. Dolg, H. Stoll, H.Preuss, J. Chem. Phys., 1989, 90, 1730-1734.
Y-Cd(ecp-28), Hf-Hg(ecp-46): D. Andrae,U. Haeussermann, M. Dolg, H. Stoll, H. Preuss, Theor. Chim. Acta, 1990, 77, 123-141.
In-Sb(ecp-28), Tl-Bi(ecp-46): B. Metz, H. Stoll, M. Dolg, J. Chem. Phys., 2000, 113, 2563-2569.
Te-Xe(ecp-28), Po-Rn(ecp-46): K. A. Peterson, D. Figgen, E. Goll, H. Stoll, M. Dolg, J. Chem. Phys., 2003, 119, 11113-11123.
Rb(ecp-28), Cs(ecp-46): T. Leininger, A. Nicklass, W. Kuechle, H. Stoll, M. Dolg, A. Bergner, Chem. Phys. Lett., 1996, 255, 274-280.
Sr(ecp-28), Ba(ecp-46): M. Kaupp, P. V. Schleyer, H. Stoll and H. Preuss, J. Chem. Phys., 1991, 94, 1360-1366.
La(ecp-46): M. Dolg, H. Stoll, A. Savin, H. Preuss, Theor. Chim. Acta, 1989, 75, 173-194.
Lu(ecp-28): X. Cao, M. Dolg, J. Chem. Phys., 2001, 115, 7348-7355.

ECP parameters for Sn [Def2-ECP] have been obtained from:
TURBOMOLE (7.0.2)

----- Orbital basis set information -----
Your calculation utilizes the basis: def2-SVP
   F. Weigend and R. Ahlrichs, Phys. Chem. Chem. Phys. 7, 3297 (2005).

================================================================================
                                        WARNINGS
                       Please study these warnings very carefully!
================================================================================


INFO   : the flag for use of the SHARK integral package has been found!

================================================================================
                                       INPUT FILE
================================================================================
NAME = START_a007_b026.inp
|  1> !HF  DEF2-SVP 
|  2> %maxcore 20
|  3> %pal nprocs = 1  end
|  4> %scf
|  5> MAXITER 0
|  6> end
|  7> %output XYZFILE 1 end
|  8> * xyz 0 1
|  9> Cl 0.659654 -1.110234 1.97589
| 10> Sn 0.800099 0.335339 0.150602
| 11> Cl -0.680261 -0.034181 -1.648826
| 12> Cl 2.625784 -0.710748 -0.885714
| 13> Cl 1.810282 2.423115 0.403295
| 14> O -4.241257 -0.923246 0.049449
| 15> C -3.443725 -1.719382 -0.409379
| 16> N -2.713081 -2.597269 0.297106
| 17> C -2.838846 -2.703029 1.730779
| 18> C -1.728197 -3.438072 -0.335457
| 19> O -0.943907 1.321621 1.082832
| 20> C -2.140759 1.455701 0.754221
| 21> N -2.587664 2.330579 -0.116929
| 22> C -1.71061 3.235812 -0.832442
| 23> C -3.988425 2.364821 -0.486925
| 24> H -3.24648 -1.794761 -1.490313
| 25> H -3.02546 -3.740217 2.015861
| 26> H -1.926879 -2.36919 2.227905
| 27> H -3.670888 -2.094818 2.072732
| 28> H -1.965945 -4.494957 -0.196621
| 29> H -0.73652 -3.252724 0.080304
| 30> H -1.687273 -3.232 -1.403329
| 31> H -2.911212 0.836715 1.218318
| 32> H -2.185958 4.213767 -0.893518
| 33> H -1.530391 2.86824 -1.842997
| 34> H -0.759858 3.342556 -0.319693
| 35> H -4.543695 1.596351 0.041688
| 36> H -4.410385 3.344392 -0.263333
| 37> H -4.090304 2.174301 -1.555074
| 38> *
| 39> 
| 40>                          ****END OF INPUT****
================================================================================

                       ****************************
                       * Single Point Calculation *
                       ****************************

---------------------------------
CARTESIAN COORDINATES (ANGSTROEM)
---------------------------------
  Cl     0.659654   -1.110234    1.975890
  Sn     0.800099    0.335339    0.150602
  Cl    -0.680261   -0.034181   -1.648826
  Cl     2.625784   -0.710748   -0.885714
  Cl     1.810282    2.423115    0.403295
  O     -4.241257   -0.923246    0.049449
  C     -3.443725   -1.719382   -0.409379
  N     -2.713081   -2.597269    0.297106
  C     -2.838846   -2.703029    1.730779
  C     -1.728197   -3.438072   -0.335457
  O     -0.943907    1.321621    1.082832
  C     -2.140759    1.455701    0.754221
  N     -2.587664    2.330579   -0.116929
  C     -1.710610    3.235812   -0.832442
  C     -3.988425    2.364821   -0.486925
  H     -3.246480   -1.794761   -1.490313
  H     -3.025460   -3.740217    2.015861
  H     -1.926879   -2.369190    2.227905
  H     -3.670888   -2.094818    2.072732
  H     -1.965945   -4.494957   -0.196621
  H     -0.736520   -3.252724    0.080304
  H     -1.687273   -3.232000   -1.403329
  H     -2.911212    0.836715    1.218318
  H     -2.185958    4.213767   -0.893518
  H     -1.530391    2.868240   -1.842997
  H     -0.759858    3.342556   -0.319693
  H     -4.543695    1.596351    0.041688
  H     -4.410385    3.344392   -0.263333
  H     -4.090304    2.174301   -1.555074

----------------------------
CARTESIAN COORDINATES (A.U.)
----------------------------
  NO LB      ZA    FRAG     MASS         X           Y           Z
   0 Cl   17.0000    0    35.453    1.246565   -2.098038    3.733891
   1 Sn   22.0000*   0   118.690    1.511968    0.633699    0.284597
   2 Cl   17.0000    0    35.453   -1.285507   -0.064593   -3.115830
   3 Cl   17.0000    0    35.453    4.962013   -1.343119   -1.673757
   4 Cl   17.0000    0    35.453    3.420937    4.579024    0.762117
   5 O     8.0000    0    15.999   -8.014814   -1.744682    0.093445
   6 C     6.0000    0    12.011   -6.507697   -3.249161   -0.773614
   7 N     7.0000    0    14.007   -5.126980   -4.908127    0.561449
   8 C     6.0000    0    12.011   -5.364641   -5.107985    3.270698
   9 C     6.0000    0    12.011   -3.265819   -6.497015   -0.633922
  10 O     8.0000    0    15.999   -1.783726    2.497502    2.046256
  11 C     6.0000    0    12.011   -4.045448    2.750876    1.425271
  12 N     7.0000    0    14.007   -4.889976    4.404156   -0.220964
  13 C     6.0000    0    12.011   -3.232584    6.114799   -1.573087
  14 C     6.0000    0    12.011   -7.537031    4.468864   -0.920155
  15 H     1.0000    0     1.008   -6.134958   -3.391607   -2.816283
  16 H     1.0000    0     1.008   -5.717291   -7.067986    3.809425
  17 H     1.0000    0     1.008   -3.641274   -4.477120    4.210130
  18 H     1.0000    0     1.008   -6.936973   -3.958632    3.916896
  19 H     1.0000    0     1.008   -3.715098   -8.494238   -0.371560
  20 H     1.0000    0     1.008   -1.391821   -6.146758    0.151753
  21 H     1.0000    0     1.008   -3.188484   -6.107595   -2.651907
  22 H     1.0000    0     1.008   -5.501393    1.581162    2.302287
  23 H     1.0000    0     1.008   -4.130862    7.962866   -1.688504
  24 H     1.0000    0     1.008   -2.892020    5.420188   -3.482760
  25 H     1.0000    0     1.008   -1.435924    6.316515   -0.604132
  26 H     1.0000    0     1.008   -8.586339    3.016666    0.078779
  27 H     1.0000    0     1.008   -8.334420    6.319985   -0.497627
  28 H     1.0000    0     1.008   -7.729554    4.108833   -2.938664
* core charge reduced due to ECP

--------------------------------
INTERNAL COORDINATES (ANGSTROEM)
--------------------------------
 Cl     0   0   0     0.000000000000     0.00000000     0.00000000
 Sn     1   0   0     2.332612779545     0.00000000     0.00000000
 Cl     2   1   0     2.359226968137   117.51548502     0.00000000
 Cl     2   1   3     2.345500923609    96.67327916   261.16776938
 Cl     2   1   3     2.333052093699   119.72825822   159.96546838
 O      3   2   1     4.044164569088   105.46517412    41.41315906
 C      6   3   2     1.216722217724    53.72408170   259.87553907
 N      7   6   3     1.342999365126   125.87006747   110.82565150
 C      8   7   6     1.443059348660   121.54188164     1.64045565
 C      8   7   6     1.441208564793   121.48317450   184.23283938
 O      2   1   3     2.209832999224    84.20146162    80.19770541
 C     11   2   1     1.248365870098   133.90988479   246.57981198
 N     12  11   2     1.313026243610   124.92671437   280.82686874
 C     13  12  11     1.449354806931   122.52944290     1.57561470
 C     13  12  11     1.449207001674   120.93847971   176.72330410
 H      7   6   3     1.101365468871   122.15958456   290.57563154
 H      9   8   7     1.091721337643   110.11816322   127.34663381
 H      9   8   7     1.090993376188   110.94203252   247.27633309
 H      9   8   7     1.085885060443   109.79086721     7.82343942
 H     10   8   7     1.092156330213   111.10044340   240.39924915
 H     10   8   7     1.091161932324   110.77709627   119.99290551
 H     10   8   7     1.088343259888   110.23601890     0.62501435
 H     12  11   2     1.091845922653   120.24813048   102.41729435
 H     14  13  12     1.089073909753   108.93004566   220.14414965
 H     14  13  12     1.090325396921   110.30530780   100.74618638
 H     14  13  12     1.085465422775   110.99286955   339.78096403
 H     15  13  12     1.085496484365   110.69405933   359.73127870
 H     15  13  12     1.089771979868   110.06662160   121.26996090
 H     15  13  12     1.089779559013   109.66205636   240.91401248

---------------------------
INTERNAL COORDINATES (A.U.)
---------------------------
 Cl     0   0   0     0.000000000000     0.00000000     0.00000000
 Sn     1   0   0     4.407999329825     0.00000000     0.00000000
 Cl     2   1   0     4.458292857540   117.51548502     0.00000000
 Cl     2   1   3     4.432354392480    96.67327916   261.16776938
 Cl     2   1   3     4.408829513263   119.72825822   159.96546838
 O      3   2   1     7.642363476084   105.46517412    41.41315906
 C      6   3   2     2.299271772556    53.72408170   259.87553907
 N      7   6   3     2.537900998119   125.87006747   110.82565150
 C      8   7   6     2.726986963962   121.54188164     1.64045565
 C      8   7   6     2.723489489321   121.48317450   184.23283938
 O      2   1   3     4.175979170235    84.20146162    80.19770541
 C     11   2   1     2.359069609419   133.90988479   246.57981198
 N     12  11   2     2.481260007075   124.92671437   280.82686874
 C     13  12  11     2.738883655982   122.52944290     1.57561470
 C     13  12  11     2.738604344525   120.93847971   176.72330410
 H      7   6   3     2.081279109524   122.15958456   290.57563154
 H      9   8   7     2.063054342703   110.11816322   127.34663381
 H      9   8   7     2.061678694917   110.94203252   247.27633309
 H      9   8   7     2.052025377154   109.79086721     7.82343942
 H     10   8   7     2.063876359532   111.10044340   240.39924915
 H     10   8   7     2.061997219854   110.77709627   119.99290551
 H     10   8   7     2.056670700888   110.23601890     0.62501435
 H     12  11   2     2.063289774253   120.24813048   102.41729435
 H     14  13  12     2.058051429032   108.93004566   220.14414965
 H     14  13  12     2.060416397039   110.30530780   100.74618638
 H     14  13  12     2.051232376887   110.99286955   339.78096403
 H     15  13  12     2.051291074784   110.69405933   359.73127870
 H     15  13  12     2.059370590371   110.06662160   121.26996090
 H     15  13  12     2.059384912880   109.66205636   240.91401248

---------------------
BASIS SET INFORMATION
---------------------
There are 6 groups of distinct atoms

 Group   1 Type Cl  : 10s7p1d contracted to 4s3p1d pattern {5311/511/1}
 Group   2 Type Sn  : 10s7p6d contracted to 4s4p2d pattern {6211/4111/51}
 Group   3 Type O   : 7s4p1d contracted to 3s2p1d pattern {511/31/1}
 Group   4 Type C   : 7s4p1d contracted to 3s2p1d pattern {511/31/1}
 Group   5 Type N   : 7s4p1d contracted to 3s2p1d pattern {511/31/1}
 Group   6 Type H   : 4s1p contracted to 2s1p pattern {31/1}

Atom   0Cl   basis set group =>   1
Atom   1Sn   basis set group =>   2
Atom   2Cl   basis set group =>   1
Atom   3Cl   basis set group =>   1
Atom   4Cl   basis set group =>   1
Atom   5O    basis set group =>   3
Atom   6C    basis set group =>   4
Atom   7N    basis set group =>   5
Atom   8C    basis set group =>   4
Atom   9C    basis set group =>   4
Atom  10O    basis set group =>   3
Atom  11C    basis set group =>   4
Atom  12N    basis set group =>   5
Atom  13C    basis set group =>   4
Atom  14C    basis set group =>   4
Atom  15H    basis set group =>   6
Atom  16H    basis set group =>   6
Atom  17H    basis set group =>   6
Atom  18H    basis set group =>   6
Atom  19H    basis set group =>   6
Atom  20H    basis set group =>   6
Atom  21H    basis set group =>   6
Atom  22H    basis set group =>   6
Atom  23H    basis set group =>   6
Atom  24H    basis set group =>   6
Atom  25H    basis set group =>   6
Atom  26H    basis set group =>   6
Atom  27H    basis set group =>   6
Atom  28H    basis set group =>   6
-------------------------
ECP PARAMETER INFORMATION
-------------------------

 Group 1, Type Sn ECP Def2-ECP (replacing 28 core electrons, lmax=3)

Atom   1Sn   ECP group =>   1

------------------------------------------------------------------------------
                           ORCA GTO INTEGRAL CALCULATION
------------------------------------------------------------------------------
------------------------------------------------------------------------------
                   ___                                                        
                  /   \      - P O W E R E D   B Y -                         
                 /     \                                                     
                 |  |  |   _    _      __       _____    __    __             
                 |  |  |  | |  | |    /  \     |  _  \  |  |  /  |          
                  \  \/   | |  | |   /    \    | | | |  |  | /  /          
                 / \  \   | |__| |  /  /\  \   | |_| |  |  |/  /          
                |  |  |   |  __  | /  /__\  \  |    /   |      \           
                |  |  |   | |  | | |   __   |  |    \   |  |\   \          
                \     /   | |  | | |  |  |  |  | |\  \  |  | \   \       
                 \___/    |_|  |_| |__|  |__|  |_| \__\ |__|  \__/        
                                                                              
                      - O R C A' S   B I G   F R I E N D -                    
                                      &                                       
                       - I N T E G R A L  F E E D E R -                       
                                                                              
 v1 FN, 2020, v2 2021                                                         
------------------------------------------------------------------------------


Reading SHARK input file START_a007_b026.SHARKINP.tmp ... ok
----------------------
SHARK INTEGRAL PACKAGE
----------------------

Number of atoms                             ...     29
Number of basis functions                   ...    308
Number of shells                            ...    144
Maximum angular momentum                    ...      2
Integral batch strategy                     ... SHARK/LIBINT Hybrid
RI-J (if used) integral strategy            ... SPLIT-RIJ (Revised 2003 algorithm where possible)
Printlevel                                  ...      1
Contraction scheme used                     ... SEGMENTED contraction
Coulomb Range Separation                    ... NOT USED
Exchange Range Separation                   ... NOT USED
Finite Nucleus Model                        ... NOT USED
Auxiliary Coulomb fitting basis             ... NOT available
Auxiliary J/K fitting basis                 ... NOT available
Auxiliary Correlation fitting basis         ... NOT available
Auxiliary 'external' fitting basis          ... NOT available
Integral threshold                          ...     1.000000e-10
Primitive cut-off                           ...     1.000000e-11
Primitive pair pre-selection threshold      ...     1.000000e-11

Calculating pre-screening integrals         ... done (  0.1 sec) Dimension = 144
Organizing shell pair data                  ... done (  0.0 sec)
Shell pair information
Total number of shell pairs                 ...     10440
Shell pairs after pre-screening             ...      7985
Total number of primitive shell pairs       ...     41051
Primitive shell pairs kept                  ...     19568
          la=0 lb=0:   2446 shell pairs
          la=1 lb=0:   2995 shell pairs
          la=1 lb=1:    961 shell pairs
          la=2 lb=0:    913 shell pairs
          la=2 lb=1:    572 shell pairs
          la=2 lb=2:     98 shell pairs

Calculating one electron integrals          ... done (  0.1 sec)
Calculating ECP integrals                   ... done (  0.2 sec)
Calculating Nuclear repulsion               ... done (  0.0 sec) ENN=   1973.430374726609 Eh

SHARK setup successfully completed in   0.6 seconds

Maximum memory used throughout the entire GTOINT-calculation: 55.9 MB
-------------------------------------------------------------------------------
                                 ORCA SCF
-------------------------------------------------------------------------------

------------
SCF SETTINGS
------------
Hamiltonian:
 Ab initio Hamiltonian  Method          .... Hartree-Fock(GTOs)


General Settings:
 Integral files         IntName         .... START_a007_b026
 Hartree-Fock type      HFTyp           .... RHF
 Total Charge           Charge          ....    0
 Multiplicity           Mult            ....    1
 Number of Electrons    NEL             ....  170
 Basis Dimension        Dim             ....  308
 Nuclear Repulsion      ENuc            ....   1973.4303747266 Eh

Convergence Acceleration:
 DIIS                   CNVDIIS         .... on
   Start iteration      DIISMaxIt       ....    12
   Startup error        DIISStart       ....  0.200000
   # of expansion vecs  DIISMaxEq       ....     5
   Bias factor          DIISBfac        ....   1.050
   Max. coefficient     DIISMaxC        ....  10.000
 Trust-Rad. Augm. Hess. CNVTRAH         .... auto
   Auto Start mean grad. ratio tolernc. ....  1.125000
   Auto Start start iteration           ....    20
   Auto Start num. interpolation iter.  ....    10
   Max. Number of Micro iterations      ....    16
   Max. Number of Macro iterations      .... Maxiter - #DIIS iter
   Number of Davidson start vectors     ....     2
   Converg. threshold I  (grad. norm)   ....   5.000e-05
   Converg. threshold II (energy diff.) ....   1.000e-06
   Grad. Scal. Fac. for Micro threshold ....   0.100
   Minimum threshold for Micro iter.    ....   0.010
   NR start threshold (gradient norm)   ....   0.001
   Initial trust radius                 ....   0.400
   Minimum AH scaling param. (alpha)    ....   1.000
   Maximum AH scaling param. (alpha)    .... 1000.000
   Orbital update algorithm             .... Taylor
   White noise on init. David. guess    .... on
   Maximum white noise                  ....   0.010
   Quad. conv. algorithm                .... NR
 SOSCF                  CNVSOSCF        .... on
   Start iteration      SOSCFMaxIt      ....   150
   Startup grad/error   SOSCFStart      ....  0.003300
 Level Shifting         CNVShift        .... on
   Level shift para.    LevelShift      ....    0.2500
   Turn off err/grad.   ShiftErr        ....    0.0010
 Zerner damping         CNVZerner       .... off
 Static damping         CNVDamp         .... on
   Fraction old density DampFac         ....    0.7000
   Max. Damping (<1)    DampMax         ....    0.9800
   Min. Damping (>=0)   DampMin         ....    0.0000
   Turn off err/grad.   DampErr         ....    0.1000
 Fernandez-Rico         CNVRico         .... off

SCF Procedure:
 Maximum # iterations   MaxIter         ....     0
 SCF integral mode      SCFMode         .... Direct
   Integral package                     .... SHARK and LIBINT hybrid scheme
 Reset frequency        DirectResetFreq ....    20
 Integral Threshold     Thresh          ....  1.000e-10 Eh
 Primitive CutOff       TCut            ....  1.000e-11 Eh

Convergence Tolerance:
 Convergence Check Mode ConvCheckMode   .... Total+1el-Energy
 Convergence forced     ConvForced      .... 0
 Energy Change          TolE            ....  1.000e-06 Eh
 1-El. energy change                    ....  1.000e-03 Eh
 Orbital Gradient       TolG            ....  5.000e-05
 Orbital Rotation angle TolX            ....  5.000e-05
 DIIS Error             TolErr          ....  1.000e-06


Diagonalization of the overlap matrix:
Smallest eigenvalue                        ... 5.566e-03
Time for diagonalization                   ...    0.013 sec
Threshold for overlap eigenvalues          ... 1.000e-08
Number of eigenvalues below threshold      ... 0
Time for construction of square roots      ...    0.004 sec
Total time needed                          ...    0.017 sec

Time for model grid setup =    0.633 sec

------------------------------
INITIAL GUESS: MODEL POTENTIAL
------------------------------
Loading Hartree-Fock densities                     ... done
  calling /opt/bwhpc/common/chem/orca/5.0.2_static/orca START_a007_b026_atom50.inp > START_a007_b026_atom50.out in order to generate an atomic fitting density for atom 1 (Sn with ECP) on-the-fly... 
    atom 1 (Sn), assumed electronic state with S=3: 1s2 2s2 2p6 3s2 3p6 4s2 3d10 4p6 5s2 4d10 5p2           ... done
Calculating cut-offs                               ... done
Initializing the effective Hamiltonian             ... done
Setting up the integral package (SHARK)            ... done
Starting the Coulomb interaction                   ... done (   0.6 sec)
Reading the grid                                   ... done
Mapping shells                                     ... done
Starting the XC term evaluation                    ... done (   0.3 sec)
Transforming the Hamiltonian                       ... done (   0.0 sec)
Diagonalizing the Hamiltonian                      ... done (   0.0 sec)
Back transforming the eigenvectors                 ... done (   0.0 sec)
Now organizing SCF variables                       ... done
                      ------------------
                      INITIAL GUESS DONE (   2.0 sec)
                      ------------------

     ****MaxIter==0 has been chosen - skipping the SCF****

!!!!!!!!!!!!!!!!!!!!!!!!!!!!!!!!!!!!!!!!!!!!!!!!!!!!!!!!!!!
!! SERIOUS WARNING: The orbitals and populations did NOT !!
!!                  come from a CONVERGED calculation    !!
!!!!!!!!!!!!!!!!!!!!!!!!!!!!!!!!!!!!!!!!!!!!!!!!!!!!!!!!!!!

THE WAVEFUNCTION AND DENSITY WILL STILL BE STORED BUT BE CAREFUL
MAKE SURE THAT WHAT YOU INPUT MAKES ACTUALLY SENSE!

             **** DENSITY START_a007_b026.scfp WAS UPDATED ****
----------------
ORBITAL ENERGIES
----------------

  NO   OCC          E(Eh)            E(eV) 
   0   2.0000    -100.407465     -2732.2260 
   1   2.0000    -100.407220     -2732.2194 
   2   2.0000    -100.403500     -2732.1181 
   3   2.0000    -100.399768     -2732.0166 
   4   2.0000     -18.940895      -515.4080 
   5   2.0000     -18.780747      -511.0501 
   6   2.0000     -14.054746      -382.4491 
   7   2.0000     -14.051225      -382.3533 
   8   2.0000      -9.962655      -271.0976 
   9   2.0000      -9.962538      -271.0944 
  10   2.0000      -9.962459      -271.0923 
  11   2.0000      -9.962162      -271.0842 
  12   2.0000      -9.960644      -271.0429 
  13   2.0000      -9.951998      -270.8076 
  14   2.0000      -9.938392      -270.4374 
  15   2.0000      -9.304566      -253.1901 
  16   2.0000      -9.304317      -253.1833 
  17   2.0000      -9.300532      -253.0803 
  18   2.0000      -9.296677      -252.9754 
  19   2.0000      -8.154599      -221.8979 
  20   2.0000      -8.154404      -221.8926 
  21   2.0000      -8.154116      -221.8848 
  22   2.0000      -7.164719      -194.9619 
  23   2.0000      -7.164470      -194.9551 
  24   2.0000      -7.160713      -194.8529 
  25   2.0000      -7.156767      -194.7455 
  26   2.0000      -7.156732      -194.7446 
  27   2.0000      -7.156704      -194.7438 
  28   2.0000      -7.156532      -194.7391 
  29   2.0000      -7.156471      -194.7375 
  30   2.0000      -7.152768      -194.6367 
  31   2.0000      -7.152763      -194.6366 
  32   2.0000      -7.149090      -194.5366 
  33   2.0000      -7.149070      -194.5361 
  34   2.0000      -5.328048      -144.9836 
  35   2.0000      -5.305530      -144.3708 
  36   2.0000      -5.304639      -144.3466 
  37   2.0000      -5.289578      -143.9367 
  38   2.0000      -5.289147      -143.9250 
  39   2.0000      -2.235067       -60.8193 
  40   2.0000      -1.610118       -43.8136 
  41   2.0000      -1.607610       -43.7453 
  42   2.0000      -1.600278       -43.5458 
  43   2.0000      -1.198736       -32.6193 
  44   2.0000      -1.079635       -29.3784 
  45   2.0000      -1.010282       -27.4912 
  46   2.0000      -0.985358       -26.8130 
  47   2.0000      -0.975242       -26.5377 
  48   2.0000      -0.948287       -25.8042 
  49   2.0000      -0.945319       -25.7234 
  50   2.0000      -0.935671       -25.4609 
  51   2.0000      -0.805207       -21.9108 
  52   2.0000      -0.777500       -21.1568 
  53   2.0000      -0.775285       -21.0966 
  54   2.0000      -0.749876       -20.4051 
  55   2.0000      -0.741746       -20.1839 
  56   2.0000      -0.696337       -18.9483 
  57   2.0000      -0.693032       -18.8584 
  58   2.0000      -0.655697       -17.8424 
  59   2.0000      -0.653980       -17.7957 
  60   2.0000      -0.622087       -16.9278 
  61   2.0000      -0.620145       -16.8750 
  62   2.0000      -0.602706       -16.4005 
  63   2.0000      -0.598084       -16.2747 
  64   2.0000      -0.581989       -15.8367 
  65   2.0000      -0.563244       -15.3266 
  66   2.0000      -0.555060       -15.1039 
  67   2.0000      -0.539723       -14.6866 
  68   2.0000      -0.532339       -14.4857 
  69   2.0000      -0.529731       -14.4147 
  70   2.0000      -0.498515       -13.5653 
  71   2.0000      -0.482264       -13.1231 
  72   2.0000      -0.476203       -12.9581 
  73   2.0000      -0.473970       -12.8974 
  74   2.0000      -0.473452       -12.8833 
  75   2.0000      -0.470905       -12.8140 
  76   2.0000      -0.468179       -12.7398 
  77   2.0000      -0.461403       -12.5554 
  78   2.0000      -0.456308       -12.4168 
  79   2.0000      -0.454180       -12.3589 
  80   2.0000      -0.451053       -12.2738 
  81   2.0000      -0.446460       -12.1488 
  82   2.0000      -0.442005       -12.0276 
  83   2.0000      -0.441047       -12.0015 
  84   2.0000      -0.437460       -11.9039 
  85   0.0000      -0.436730       -11.8840 
  86   0.0000      -0.373183       -10.1548 
  87   0.0000      -0.365530        -9.9466 
  88   0.0000      -0.358417        -9.7530 
  89   0.0000      -0.353939        -9.6312 
  90   0.0000      -0.333631        -9.0786 
  91   0.0000      -0.317041        -8.6271 
  92   0.0000      -0.314838        -8.5672 
  93   0.0000      -0.276257        -7.5173 
  94   0.0000      -0.152240        -4.1427 
  95   0.0000      -0.145467        -3.9584 
  96   0.0000      -0.112741        -3.0678 
  97   0.0000      -0.042815        -1.1650 
  98   0.0000      -0.033560        -0.9132 
  99   0.0000      -0.024732        -0.6730 
 100   0.0000      -0.009105        -0.2478 
 101   0.0000      -0.002475        -0.0674 
 102   0.0000       0.002569         0.0699 
 103   0.0000       0.010778         0.2933 
 104   0.0000       0.020606         0.5607 
 105   0.0000       0.025567         0.6957 
 106   0.0000       0.029497         0.8027 
 107   0.0000       0.032877         0.8946 
 108   0.0000       0.037356         1.0165 
 109   0.0000       0.040868         1.1121 
 110   0.0000       0.044713         1.2167 
 111   0.0000       0.060535         1.6472 
 112   0.0000       0.062999         1.7143 
 113   0.0000       0.067764         1.8439 
 114   0.0000       0.077188         2.1004 
 115   0.0000       0.084663         2.3038 
 116   0.0000       0.091806         2.4982 
 117   0.0000       0.102619         2.7924 
 118   0.0000       0.141549         3.8518 
 119   0.0000       0.145345         3.9550 
 120   0.0000       0.197841         5.3835 
 121   0.0000       0.215605         5.8669 
 122   0.0000       0.263268         7.1639 
 123   0.0000       0.271438         7.3862 
 124   0.0000       0.277713         7.5570 
 125   0.0000       0.304644         8.2898 
 126   0.0000       0.306135         8.3304 
 127   0.0000       0.310496         8.4490 
 128   0.0000       0.314895         8.5687 
 129   0.0000       0.342770         9.3272 
 130   0.0000       0.352590         9.5945 
 131   0.0000       0.362617         9.8673 
 132   0.0000       0.382076        10.3968 
 133   0.0000       0.405867        11.0442 
 134   0.0000       0.419101        11.4043 
 135   0.0000       0.421049        11.4573 
 136   0.0000       0.426975        11.6186 
 137   0.0000       0.440804        11.9949 
 138   0.0000       0.448929        12.2160 
 139   0.0000       0.455620        12.3980 
 140   0.0000       0.465275        12.6608 
 141   0.0000       0.465732        12.6732 
 142   0.0000       0.473495        12.8845 
 143   0.0000       0.480158        13.0658 
 144   0.0000       0.482202        13.1214 
 145   0.0000       0.487565        13.2673 
 146   0.0000       0.489641        13.3238 
 147   0.0000       0.493685        13.4338 
 148   0.0000       0.497411        13.5352 
 149   0.0000       0.500631        13.6229 
 150   0.0000       0.502816        13.6823 
 151   0.0000       0.508349        13.8329 
 152   0.0000       0.509293        13.8586 
 153   0.0000       0.511336        13.9142 
 154   0.0000       0.515031        14.0147 
 155   0.0000       0.520607        14.1664 
 156   0.0000       0.525090        14.2884 
 157   0.0000       0.527958        14.3665 
 158   0.0000       0.531659        14.4672 
 159   0.0000       0.537612        14.6292 
 160   0.0000       0.540148        14.6982 
 161   0.0000       0.544770        14.8239 
 162   0.0000       0.546118        14.8606 
 163   0.0000       0.548877        14.9357 
 164   0.0000       0.552363        15.0306 
 165   0.0000       0.553885        15.0720 
 166   0.0000       0.556283        15.1372 
 167   0.0000       0.562151        15.2969 
 168   0.0000       0.565388        15.3850 
 169   0.0000       0.567497        15.4424 
 170   0.0000       0.571364        15.5476 
 171   0.0000       0.578531        15.7426 
 172   0.0000       0.581150        15.8139 
 173   0.0000       0.592179        16.1140 
 174   0.0000       0.594569        16.1791 
 175   0.0000       0.601669        16.3723 
 176   0.0000       0.610200        16.6044 
 177   0.0000       0.612571        16.6689 
 178   0.0000       0.621661        16.9163 
 179   0.0000       0.641114        17.4456 
 180   0.0000       0.653750        17.7894 
 181   0.0000       0.671306        18.2672 
 182   0.0000       0.683150        18.5895 
 183   0.0000       0.700336        19.0571 
 184   0.0000       0.711199        19.3527 
 185   0.0000       0.744544        20.2601 
 186   0.0000       0.752581        20.4788 
 187   0.0000       0.761993        20.7349 
 188   0.0000       0.776080        21.1182 
 189   0.0000       0.789496        21.4833 
 190   0.0000       0.810494        22.0547 
 191   0.0000       0.813670        22.1411 
 192   0.0000       0.825047        22.4507 
 193   0.0000       0.832167        22.6444 
 194   0.0000       0.838548        22.8180 
 195   0.0000       0.869254        23.6536 
 196   0.0000       0.871994        23.7282 
 197   0.0000       0.879214        23.9246 
 198   0.0000       0.891884        24.2694 
 199   0.0000       0.909567        24.7506 
 200   0.0000       0.932221        25.3670 
 201   0.0000       0.942744        25.6534 
 202   0.0000       0.950116        25.8540 
 203   0.0000       0.972238        26.4559 
 204   0.0000       0.983179        26.7537 
 205   0.0000       0.991357        26.9762 
 206   0.0000       0.999268        27.1915 
 207   0.0000       1.023190        27.8424 
 208   0.0000       1.025579        27.9074 
 209   0.0000       1.048045        28.5188 
 210   0.0000       1.077027        29.3074 
 211   0.0000       1.091382        29.6980 
 212   0.0000       1.107362        30.1328 
 213   0.0000       1.136246        30.9188 
 214   0.0000       1.234553        33.5939 
 215   0.0000       1.245578        33.8939 
 216   0.0000       1.285521        34.9808 
 217   0.0000       1.296724        35.2856 
 218   0.0000       1.319798        35.9135 
 219   0.0000       1.331915        36.2433 
 220   0.0000       1.336720        36.3740 
 221   0.0000       1.358137        36.9568 
 222   0.0000       1.385175        37.6925 
 223   0.0000       1.386749        37.7354 
 224   0.0000       1.392791        37.8998 
 225   0.0000       1.399053        38.0702 
 226   0.0000       1.430155        38.9165 
 227   0.0000       1.436287        39.0834 
 228   0.0000       1.508160        41.0391 
 229   0.0000       1.511196        41.1217 
 230   0.0000       1.582551        43.0634 
 231   0.0000       1.589770        43.2598 
 232   0.0000       1.602976        43.6192 
 233   0.0000       1.610208        43.8160 
 234   0.0000       1.634982        44.4901 
 235   0.0000       1.642011        44.6814 
 236   0.0000       1.645995        44.7898 
 237   0.0000       1.648678        44.8628 
 238   0.0000       1.652316        44.9618 
 239   0.0000       1.657264        45.0965 
 240   0.0000       1.661490        45.2114 
 241   0.0000       1.662202        45.2308 
 242   0.0000       1.690197        45.9926 
 243   0.0000       1.691854        46.0377 
 244   0.0000       1.713157        46.6174 
 245   0.0000       1.724376        46.9226 
 246   0.0000       1.782456        48.5031 
 247   0.0000       1.792981        48.7895 
 248   0.0000       1.803626        49.0792 
 249   0.0000       1.817992        49.4701 
 250   0.0000       1.840551        50.0840 
 251   0.0000       1.845814        50.2272 
 252   0.0000       1.877308        51.0841 
 253   0.0000       1.886869        51.3443 
 254   0.0000       1.906744        51.8852 
 255   0.0000       1.914380        52.0929 
 256   0.0000       1.943050        52.8731 
 257   0.0000       1.965888        53.4945 
 258   0.0000       2.007208        54.6189 
 259   0.0000       2.018042        54.9137 
 260   0.0000       2.107806        57.3563 
 261   0.0000       2.117450        57.6187 
 262   0.0000       2.119293        57.6689 
 263   0.0000       2.125642        57.8416 
 264   0.0000       2.192575        59.6630 
 265   0.0000       2.226019        60.5731 
 266   0.0000       2.237045        60.8731 
 267   0.0000       2.239917        60.9512 
 268   0.0000       2.250448        61.2378 
 269   0.0000       2.266045        61.6622 
 270   0.0000       2.289695        62.3058 
 271   0.0000       2.296135        62.4810 
 272   0.0000       2.399587        65.2961 
 273   0.0000       2.408524        65.5393 
 274   0.0000       2.419875        65.8481 
 275   0.0000       2.439487        66.3818 
 276   0.0000       2.469172        67.1896 
 277   0.0000       2.474026        67.3217 
 278   0.0000       2.501565        68.0711 
 279   0.0000       2.509783        68.2947 
 280   0.0000       2.555509        69.5389 
 281   0.0000       2.563220        69.7488 
 282   0.0000       2.574438        70.0540 
 283   0.0000       2.591510        70.5186 
 284   0.0000       2.662120        72.4400 
 285   0.0000       2.671035        72.6826 
 286   0.0000       2.696242        73.3685 
 287   0.0000       2.702361        73.5350 
 288   0.0000       2.720597        74.0312 
 289   0.0000       2.730690        74.3058 
 290   0.0000       2.736071        74.4523 
 291   0.0000       2.754197        74.9455 
 292   0.0000       2.766148        75.2707 
 293   0.0000       2.784607        75.7730 
 294   0.0000       2.819165        76.7134 
 295   0.0000       2.850309        77.5609 
 296   0.0000       2.880363        78.3787 
 297   0.0000       2.956859        80.4602 
 298   0.0000       3.029654        82.4411 
 299   0.0000       3.050224        83.0008 
 300   0.0000       3.183909        86.6386 
 301   0.0000       3.295476        89.6745 
 302   0.0000       3.302374        89.8622 
 303   0.0000       3.412845        92.8682 
 304   0.0000       9.608179       261.4518 
 305   0.0000       9.655467       262.7386 
 306   0.0000       9.668972       263.1061 
 307   0.0000      43.558388      1185.2840 

                    ********************************
                    * MULLIKEN POPULATION ANALYSIS *
                    ********************************

-----------------------
MULLIKEN ATOMIC CHARGES
-----------------------
   0 Cl:    1.557692
   1 Sn:  -13.413505
   2 Cl:    1.627396
   3 Cl:    1.980109
   4 Cl:    1.470424
   5 O :    1.189265
   6 C :    0.649430
   7 N :    0.837391
   8 C :   -0.151152
   9 C :   -0.162008
  10 O :   -0.428292
  11 C :    1.044974
  12 N :    0.800419
  13 C :   -0.106144
  14 C :   -0.116091
  15 H :    0.367962
  16 H :    0.231758
  17 H :    0.239558
  18 H :    0.171147
  19 H :    0.251262
  20 H :    0.231811
  21 H :    0.172436
  22 H :    0.160208
  23 H :    0.241137
  24 H :    0.284770
  25 H :    0.183930
  26 H :    0.160258
  27 H :    0.263031
  28 H :    0.260826
Sum of atomic charges:    0.0000000

--------------------------------
MULLIKEN REDUCED ORBITAL CHARGES
--------------------------------
  0 Cls       :     5.999736  s :     5.999736
      pz      :     3.115986  p :     9.398166
      px      :     3.341656
      py      :     2.940524
      dz2     :     0.017370  d :     0.044406
      dxz     :     0.014906
      dyz     :    -0.002379
      dx2y2   :     0.005206
      dxy     :     0.009302
  1 Sns       :     4.028446  s :     4.028446
      pz      :     4.263268  p :    12.758034
      px      :     4.264210
      py      :     4.230556
      dz2     :     3.714415  d :    18.627025
      dxz     :     3.735166
      dyz     :     3.729181
      dx2y2   :     3.706163
      dxy     :     3.742100
  2 Cls       :     6.015191  s :     6.015191
      pz      :     3.098650  p :     9.317608
      px      :     3.249539
      py      :     2.969419
      dz2     :     0.016357  d :     0.039805
      dxz     :    -0.000870
      dyz     :     0.010555
      dx2y2   :     0.005894
      dxy     :     0.007869
  3 Cls       :     5.999370  s :     5.999370
      pz      :     2.902022  p :     8.976967
      px      :     3.107538
      py      :     2.967407
      dz2     :     0.009865  d :     0.043554
      dxz     :     0.006517
      dyz     :     0.005926
      dx2y2   :     0.014773
      dxy     :     0.006473
  4 Cls       :     6.002411  s :     6.002411
      pz      :     3.376475  p :     9.483155
      px      :     2.998698
      py      :     3.107982
      dz2     :    -0.000457  d :     0.044011
      dxz     :     0.004971
      dyz     :     0.019343
      dx2y2   :     0.013389
      dxy     :     0.006766
  5 O s       :     3.791676  s :     3.791676
      pz      :     0.523589  p :     3.003427
      px      :     1.257128
      py      :     1.222710
      dz2     :     0.002087  d :     0.015631
      dxz     :     0.002554
      dyz     :     0.002550
      dx2y2   :     0.004051
      dxy     :     0.004390
  6 C s       :     2.996341  s :     2.996341
      pz      :     0.894934  p :     2.308594
      px      :     0.701394
      py      :     0.712266
      dz2     :     0.005165  d :     0.045635
      dxz     :     0.008230
      dyz     :     0.010638
      dx2y2   :     0.008296
      dxy     :     0.013306
  7 N s       :     3.383343  s :     3.383343
      pz      :     1.099501  p :     2.751983
      px      :     0.833779
      py      :     0.818703
      dz2     :     0.006548  d :     0.027283
      dxz     :     0.006659
      dyz     :     0.006641
      dx2y2   :     0.003552
      dxy     :     0.003883
  8 C s       :     3.051722  s :     3.051722
      pz      :     0.820627  p :     3.070460
      px      :     1.122224
      py      :     1.127609
      dz2     :     0.011789  d :     0.028970
      dxz     :     0.004948
      dyz     :     0.003789
      dx2y2   :     0.003999
      dxy     :     0.004445
  9 C s       :     3.051870  s :     3.051870
      pz      :     1.094396  p :     3.081819
      px      :     0.967250
      py      :     1.020173
      dz2     :     0.008681  d :     0.028320
      dxz     :     0.005687
      dyz     :     0.003770
      dx2y2   :     0.003470
      dxy     :     0.006711
 10 O s       :     3.707442  s :     3.707442
      pz      :     1.664894  p :     4.714611
      px      :     1.346379
      py      :     1.703338
      dz2     :     0.001725  d :     0.006239
      dxz     :     0.001768
      dyz     :     0.000645
      dx2y2   :     0.001950
      dxy     :     0.000152
 11 C s       :     2.989908  s :     2.989908
      pz      :     0.547952  p :     1.892689
      px      :     0.759145
      py      :     0.585592
      dz2     :     0.007372  d :     0.072430
      dxz     :     0.018713
      dyz     :     0.009524
      dx2y2   :     0.018087
      dxy     :     0.018734
 12 N s       :     3.375166  s :     3.375166
      pz      :     0.821149  p :     2.799003
      px      :     1.119163
      py      :     0.858691
      dz2     :     0.002621  d :     0.025412
      dxz     :     0.005819
      dyz     :     0.004864
      dx2y2   :     0.005862
      dxy     :     0.006246
 13 C s       :     3.060104  s :     3.060104
      pz      :     1.018147  p :     3.018179
      px      :     1.021626
      py      :     0.978406
      dz2     :     0.003277  d :     0.027861
      dxz     :     0.005624
      dyz     :     0.005405
      dx2y2   :     0.006093
      dxy     :     0.007461
 14 C s       :     3.051454  s :     3.051454
      pz      :     1.079067  p :     3.036670
      px      :     0.843891
      py      :     1.113712
      dz2     :     0.005540  d :     0.027968
      dxz     :     0.004807
      dyz     :     0.003012
      dx2y2   :     0.008914
      dxy     :     0.005695
 15 H s       :     0.612444  s :     0.612444
      pz      :     0.015730  p :     0.019594
      px      :     0.002164
      py      :     0.001699
 16 H s       :     0.742147  s :     0.742147
      pz      :     0.003473  p :     0.026096
      px      :     0.005908
      py      :     0.016715
 17 H s       :     0.733731  s :     0.733731
      pz      :     0.005448  p :     0.026710
      px      :     0.014265
      py      :     0.006997
 18 H s       :     0.803076  s :     0.803076
      pz      :     0.003893  p :     0.025777
      px      :     0.012909
      py      :     0.008975
 19 H s       :     0.722651  s :     0.722651
      pz      :     0.004968  p :     0.026087
      px      :     0.004611
      py      :     0.016509
 20 H s       :     0.741950  s :     0.741950
      pz      :     0.006434  p :     0.026239
      px      :     0.014845
      py      :     0.004960
 21 H s       :     0.801640  s :     0.801640
      pz      :     0.017474  p :     0.025924
      px      :     0.003870
      py      :     0.004580
 22 H s       :     0.819657  s :     0.819657
      pz      :     0.004250  p :     0.020135
      px      :     0.009357
      py      :     0.006528
 23 H s       :     0.733108  s :     0.733108
      pz      :     0.004463  p :     0.025754
      px      :     0.006548
      py      :     0.014743
 24 H s       :     0.689457  s :     0.689457
      pz      :     0.015115  p :     0.025773
      px      :     0.004834
      py      :     0.005824
 25 H s       :     0.789786  s :     0.789786
      pz      :     0.007571  p :     0.026284
      px      :     0.014168
      py      :     0.004544
 26 H s       :     0.813485  s :     0.813485
      pz      :     0.007918  p :     0.026257
      px      :     0.006500
      py      :     0.011838
 27 H s       :     0.711011  s :     0.711011
      pz      :     0.005932  p :     0.025958
      px      :     0.004744
      py      :     0.015282
 28 H s       :     0.713194  s :     0.713194
      pz      :     0.017204  p :     0.025980
      px      :     0.002827
      py      :     0.005949


                     *******************************
                     * LOEWDIN POPULATION ANALYSIS *
                     *******************************

----------------------
LOEWDIN ATOMIC CHARGES
----------------------
   0 Cl:    1.259601
   1 Sn:  -11.791106
   2 Cl:    1.375248
   3 Cl:    1.629826
   4 Cl:    1.172210
   5 O :    1.298031
   6 C :    0.565965
   7 N :    1.057567
   8 C :   -0.029629
   9 C :   -0.034992
  10 O :   -0.541430
  11 C :    0.805826
  12 N :    0.998904
  13 C :    0.023877
  14 C :    0.010590
  15 H :    0.292340
  16 H :    0.160753
  17 H :    0.162334
  18 H :    0.100854
  19 H :    0.175692
  20 H :    0.160044
  21 H :    0.103987
  22 H :    0.104945
  23 H :    0.171601
  24 H :    0.198312
  25 H :    0.100766
  26 H :    0.093774
  27 H :    0.186935
  28 H :    0.187176

-------------------------------
LOEWDIN REDUCED ORBITAL CHARGES
-------------------------------
  0 Cls       :     5.872785  s :     5.872785
      pz      :     3.290792  p :     9.749367
      px      :     3.374012
      py      :     3.084562
      dz2     :     0.034047  d :     0.118248
      dxz     :     0.022143
      dyz     :     0.034096
      dx2y2   :     0.013694
      dxy     :     0.014268
  1 Sns       :     4.097622  s :     4.097622
      pz      :     4.167149  p :    12.525935
      px      :     4.188524
      py      :     4.170261
      dz2     :     3.465935  d :    17.167549
      dxz     :     3.401930
      dyz     :     3.443339
      dx2y2   :     3.443751
      dxy     :     3.412594
  2 Cls       :     5.892911  s :     5.892911
      pz      :     3.264055  p :     9.623837
      px      :     3.355956
      py      :     3.003825
      dz2     :     0.030521  d :     0.108004
      dxz     :     0.031572
      dyz     :     0.018634
      dx2y2   :     0.014007
      dxy     :     0.013270
  3 Cls       :     5.894163  s :     5.894163
      pz      :     2.993402  p :     9.360003
      px      :     3.301971
      py      :     3.064629
      dz2     :     0.017241  d :     0.116009
      dxz     :     0.028183
      dyz     :     0.014622
      dx2y2   :     0.027965
      dxy     :     0.027998
  4 Cls       :     5.887666  s :     5.887666
      pz      :     3.407922  p :     9.821886
      px      :     3.095796
      py      :     3.318169
      dz2     :     0.012462  d :     0.118238
      dxz     :     0.007863
      dyz     :     0.029766
      dx2y2   :     0.034509
      dxy     :     0.033637
  5 O s       :     3.564148  s :     3.564148
      pz      :     0.541716  p :     3.111006
      px      :     1.302957
      py      :     1.266333
      dz2     :     0.003619  d :     0.026815
      dxz     :     0.004834
      dyz     :     0.004701
      dx2y2   :     0.004646
      dxy     :     0.009015
  6 C s       :     2.809589  s :     2.809589
      pz      :     0.943911  p :     2.514197
      px      :     0.776182
      py      :     0.794103
      dz2     :     0.012824  d :     0.110250
      dxz     :     0.020909
      dyz     :     0.026738
      dx2y2   :     0.016029
      dxy     :     0.033750
  7 N s       :     3.044613  s :     3.044613
      pz      :     1.142409  p :     2.833351
      px      :     0.851465
      py      :     0.839476
      dz2     :     0.017083  d :     0.064469
      dxz     :     0.015626
      dyz     :     0.015929
      dx2y2   :     0.006469
      dxy     :     0.009363
  8 C s       :     2.852792  s :     2.852792
      pz      :     0.882661  p :     3.110634
      px      :     1.112023
      py      :     1.115950
      dz2     :     0.031033  d :     0.066202
      dxz     :     0.009726
      dyz     :     0.006970
      dx2y2   :     0.008686
      dxy     :     0.009787
  9 C s       :     2.851927  s :     2.851927
      pz      :     1.095468  p :     3.118116
      px      :     0.992489
      py      :     1.030159
      dz2     :     0.018551  d :     0.064949
      dxz     :     0.013461
      dyz     :     0.008922
      dx2y2   :     0.007441
      dxy     :     0.016575
 10 O s       :     3.538401  s :     3.538401
      pz      :     1.697209  p :     4.972140
      px      :     1.547311
      py      :     1.727620
      dz2     :     0.004047  d :     0.030889
      dxz     :     0.008524
      dyz     :     0.002972
      dx2y2   :     0.008004
      dxy     :     0.007342
 11 C s       :     2.802630  s :     2.802630
      pz      :     0.625725  p :     2.199435
      px      :     0.891986
      py      :     0.681724
      dz2     :     0.019859  d :     0.192109
      dxz     :     0.050599
      dyz     :     0.023250
      dx2y2   :     0.048519
      dxy     :     0.049882
 12 N s       :     3.052718  s :     3.052718
      pz      :     0.840057  p :     2.886899
      px      :     1.160065
      py      :     0.886777
      dz2     :     0.005731  d :     0.061479
      dxz     :     0.014098
      dyz     :     0.011787
      dx2y2   :     0.014828
      dxy     :     0.015036
 13 C s       :     2.851423  s :     2.851423
      pz      :     1.027394  p :     3.060856
      px      :     1.038475
      py      :     0.994987
      dz2     :     0.006790  d :     0.063843
      dxz     :     0.013911
      dyz     :     0.012464
      dx2y2   :     0.012356
      dxy     :     0.018323
 14 C s       :     2.852235  s :     2.852235
      pz      :     1.074412  p :     3.073123
      px      :     0.897904
      py      :     1.100808
      dz2     :     0.012925  d :     0.064051
      dxz     :     0.010453
      dyz     :     0.006574
      dx2y2   :     0.022834
      dxy     :     0.011266
 15 H s       :     0.641449  s :     0.641449
      pz      :     0.051682  p :     0.066211
      px      :     0.007974
      py      :     0.006555
 16 H s       :     0.760024  s :     0.760024
      pz      :     0.011941  p :     0.079223
      px      :     0.015226
      py      :     0.052056
 17 H s       :     0.757751  s :     0.757751
      pz      :     0.018483  p :     0.079915
      px      :     0.043019
      py      :     0.018413
 18 H s       :     0.820202  s :     0.820202
      pz      :     0.013603  p :     0.078944
      px      :     0.038942
      py      :     0.026399
 19 H s       :     0.744754  s :     0.744754
      pz      :     0.013403  p :     0.079554
      px      :     0.013265
      py      :     0.052886
 20 H s       :     0.760405  s :     0.760405
      pz      :     0.018531  p :     0.079551
      px      :     0.047416
      py      :     0.013604
 21 H s       :     0.817053  s :     0.817053
      pz      :     0.054724  p :     0.078960
      px      :     0.011132
      py      :     0.013105
 22 H s       :     0.831246  s :     0.831246
      pz      :     0.012806  p :     0.063809
      px      :     0.030845
      py      :     0.020158
 23 H s       :     0.749631  s :     0.749631
      pz      :     0.012140  p :     0.078767
      px      :     0.019492
      py      :     0.047135
 24 H s       :     0.722043  s :     0.722043
      pz      :     0.049060  p :     0.079645
      px      :     0.013655
      py      :     0.016930
 25 H s       :     0.820076  s :     0.820076
      pz      :     0.021924  p :     0.079159
      px      :     0.044060
      py      :     0.013175
 26 H s       :     0.826192  s :     0.826192
      pz      :     0.022846  p :     0.080034
      px      :     0.021613
      py      :     0.035575
 27 H s       :     0.733902  s :     0.733902
      pz      :     0.015522  p :     0.079163
      px      :     0.016004
      py      :     0.047637
 28 H s       :     0.733584  s :     0.733584
      pz      :     0.054071  p :     0.079240
      px      :     0.009762
      py      :     0.015407


                      *****************************
                      * MAYER POPULATION ANALYSIS *
                      *****************************

  NA   - Mulliken gross atomic population
  ZA   - Total nuclear charge
  QA   - Mulliken gross atomic charge
  VA   - Mayer's total valence
  BVA  - Mayer's bonded valence
  FA   - Mayer's free valence

  ATOM       NA         ZA         QA         VA         BVA        FA
  0 Cl    15.4423    17.0000     1.5577     2.1977     2.1977     0.0000
  1 Sn    35.4135    22.0000   -13.4135     1.2094     1.2094    -0.0000
  2 Cl    15.3726    17.0000     1.6274     2.4388     2.4388    -0.0000
  3 Cl    15.0199    17.0000     1.9801     2.4374     2.4374     0.0000
  4 Cl    15.5296    17.0000     1.4704     2.3142     2.3142    -0.0000
  5 O      6.8107     8.0000     1.1893     2.6238     2.6238    -0.0000
  6 C      5.3506     6.0000     0.6494     3.8041     3.8041    -0.0000
  7 N      6.1626     7.0000     0.8374     3.7819     3.7819    -0.0000
  8 C      6.1512     6.0000    -0.1512     3.8960     3.8960     0.0000
  9 C      6.1620     6.0000    -0.1620     3.8930     3.8930    -0.0000
 10 O      8.4283     8.0000    -0.4283     1.3130     1.3130     0.0000
 11 C      4.9550     6.0000     1.0450     3.3384     3.3384    -0.0000
 12 N      6.1996     7.0000     0.8004     3.7327     3.7327     0.0000
 13 C      6.1061     6.0000    -0.1061     3.9138     3.9138     0.0000
 14 C      6.1161     6.0000    -0.1161     3.8913     3.8913    -0.0000
 15 H      0.6320     1.0000     0.3680     0.8730     0.8730    -0.0000
 16 H      0.7682     1.0000     0.2318     0.9569     0.9569     0.0000
 17 H      0.7604     1.0000     0.2396     0.9523     0.9523     0.0000
 18 H      0.8289     1.0000     0.1711     0.9787     0.9787     0.0000
 19 H      0.7487     1.0000     0.2513     0.9489     0.9489    -0.0000
 20 H      0.7682     1.0000     0.2318     0.9693     0.9693    -0.0000
 21 H      0.8276     1.0000     0.1724     0.9758     0.9758     0.0000
 22 H      0.8398     1.0000     0.1602     0.9928     0.9928    -0.0000
 23 H      0.7589     1.0000     0.2411     0.9561     0.9561     0.0000
 24 H      0.7152     1.0000     0.2848     0.9301     0.9301     0.0000
 25 H      0.8161     1.0000     0.1839     0.9761     0.9761     0.0000
 26 H      0.8397     1.0000     0.1603     0.9991     0.9991     0.0000
 27 H      0.7370     1.0000     0.2630     0.9416     0.9416     0.0000
 28 H      0.7392     1.0000     0.2608     0.9436     0.9436     0.0000

  Mayer bond orders larger than 0.100000
B(  0-Cl,  1-Sn) :   0.2628 B(  0-Cl,  2-Cl) :   0.7027 B(  0-Cl,  3-Cl) :   0.3936 
B(  0-Cl,  4-Cl) :   0.7321 B(  1-Sn,  2-Cl) :   0.3949 B(  1-Sn,  3-Cl) :   0.5180 
B(  1-Sn,  4-Cl) :   0.3166 B(  1-Sn, 10-O ) :  -0.3745 B(  2-Cl,  3-Cl) :   0.5921 
B(  2-Cl,  4-Cl) :   0.6172 B(  3-Cl,  4-Cl) :   0.5460 B(  3-Cl, 10-O ) :   0.2309 
B(  5-O ,  6-C ) :   2.0539 B(  5-O ,  7-N ) :   0.1715 B(  5-O , 15-H ) :   0.1919 
B(  6-C ,  7-N ) :   1.0396 B(  6-C , 15-H ) :   0.6399 B(  7-N ,  8-C ) :   1.1402 
B(  7-N ,  9-C ) :   1.1515 B(  8-C , 16-H ) :   0.8569 B(  8-C , 17-H ) :   0.8380 
B(  8-C , 18-H ) :   0.9408 B(  9-C , 19-H ) :   0.8336 B(  9-C , 20-H ) :   0.8422 
B(  9-C , 21-H ) :   0.9368 B( 10-O , 11-C ) :   1.2635 B( 11-C , 12-N ) :   1.0134 
B( 11-C , 22-H ) :   0.9050 B( 12-N , 13-C ) :   1.1763 B( 12-N , 14-C ) :   1.1874 
B( 13-C , 23-H ) :   0.8307 B( 13-C , 24-H ) :   0.7794 B( 13-C , 25-H ) :   0.9011 
B( 14-C , 26-H ) :   0.9334 B( 14-C , 27-H ) :   0.8111 B( 14-C , 28-H ) :   0.8126 


-------
TIMINGS
-------

Total SCF time: 0 days 0 hours 0 min 2 sec 

Total time                  ....       2.102 sec
Sum of individual times     ....       1.969 sec  ( 93.7%)

Fock matrix formation       ....       0.000 sec  (  0.0%)
Diagonalization             ....       0.000 sec  (  0.0%)
Density matrix formation    ....       0.000 sec  (  0.0%)
Population analysis         ....       0.009 sec  (  0.4%)
Initial guess               ....       1.327 sec  ( 63.1%)
Orbital Transformation      ....       0.000 sec  (  0.0%)
Orbital Orthonormalization  ....       0.000 sec  (  0.0%)
DIIS solution               ....       0.000 sec  (  0.0%)
SOSCF solution              ....       0.000 sec  (  0.0%)

Maximum memory used throughout the entire SCF-calculation: 59.0 MB

-------------------------   --------------------
FINAL SINGLE POINT ENERGY         0.000000000000
-------------------------   --------------------


                            ***************************************
                            *     ORCA property calculations      *
                            ***************************************

                                    ---------------------
                                    Active property flags
                                    ---------------------
   (+) Dipole Moment


------------------------------------------------------------------------------
                       ORCA ELECTRIC PROPERTIES CALCULATION
------------------------------------------------------------------------------

Dipole Moment Calculation                       ... on
Quadrupole Moment Calculation                   ... off
Polarizability Calculation                      ... off
GBWName                                         ... START_a007_b026.gbw
Electron density                                ... START_a007_b026.scfp
The origin for moment calculation is the CENTER OF MASS  = (-0.618301,  0.233692  0.175408)

-------------
DIPOLE MOMENT
-------------
                                X             Y             Z
Electronic contribution:     73.11647       7.48483      -0.96758
Nuclear contribution   :   -117.34018     -19.08123      -4.85907
                        -----------------------------------------
Total Dipole Moment    :    -44.22371     -11.59640      -5.82665
                        -----------------------------------------
Magnitude (a.u.)       :     46.08864
Magnitude (Debye)      :    117.14802



--------------------
Rotational spectrum 
--------------------
 
Rotational constants in cm-1:     0.011962     0.008365     0.006217 
Rotational constants in MHz :   358.609885   250.780087   186.394044 

 Dipole components along the rotational axes: 
x,y,z [a.u.] :   -45.541871     3.753696    -6.000900 
x,y,z [Debye]:  -115.758236     9.541137   -15.253076 

 

Timings for individual modules:

Sum of individual times         ...        2.695 sec (=   0.045 min)
GTO integral calculation        ...        0.579 sec (=   0.010 min)  21.5 %
SCF iterations                  ...        2.116 sec (=   0.035 min)  78.5 %
                             ****ORCA TERMINATED NORMALLY****
TOTAL RUN TIME: 0 days 0 hours 0 minutes 2 seconds 830 msec
