
                                 *****************
                                 * O   R   C   A *
                                 *****************

                                            #,                                       
                                            ###                                      
                                            ####                                     
                                            #####                                    
                                            ######                                   
                                           ########,                                 
                                     ,,################,,,,,                         
                               ,,#################################,,                 
                          ,,##########################################,,             
                       ,#########################################, ''#####,          
                    ,#############################################,,   '####,        
                  ,##################################################,,,,####,       
                ,###########''''           ''''###############################       
              ,#####''   ,,,,##########,,,,          '''####'''          '####       
            ,##' ,,,,###########################,,,                        '##       
           ' ,,###''''                  '''############,,,                           
         ,,##''                                '''############,,,,        ,,,,,,###''
      ,#''                                            '''#######################'''  
     '                                                          ''''####''''         
             ,#######,   #######,   ,#######,      ##                                
            ,#'     '#,  ##    ##  ,#'     '#,    #''#        ######   ,####,        
            ##       ##  ##   ,#'  ##            #'  '#       #        #'  '#        
            ##       ##  #######   ##           ,######,      #####,   #    #        
            '#,     ,#'  ##    ##  '#,     ,#' ,#      #,         ##   #,  ,#        
             '#######'   ##     ##  '#######'  #'      '#     #####' # '####'        



                  #######################################################
                  #                        -***-                        #
                  #          Department of theory and spectroscopy      #
                  #    Directorship and core code : Frank Neese         #
                  #        Max Planck Institute fuer Kohlenforschung    #
                  #                Kaiser Wilhelm Platz 1               #
                  #                 D-45470 Muelheim/Ruhr               #
                  #                      Germany                        #
                  #                                                     #
                  #                  All rights reserved                #
                  #                        -***-                        #
                  #######################################################


                         Program Version 5.0.2 -  RELEASE  -


 With contributions from (in alphabetic order):
   Daniel Aravena         : Magnetic Suceptibility
   Michael Atanasov       : Ab Initio Ligand Field Theory (pilot matlab implementation)
   Alexander A. Auer      : GIAO ZORA, VPT2 properties, NMR spectrum
   Ute Becker             : Parallelization
   Giovanni Bistoni       : ED, misc. LED, open-shell LED, HFLD
   Martin Brehm           : Molecular dynamics
   Dmytro Bykov           : SCF Hessian
   Vijay G. Chilkuri      : MRCI spin determinant printing, contributions to CSF-ICE
   Dipayan Datta          : RHF DLPNO-CCSD density
   Achintya Kumar Dutta   : EOM-CC, STEOM-CC
   Dmitry Ganyushin       : Spin-Orbit,Spin-Spin,Magnetic field MRCI
   Miquel Garcia          : C-PCM and meta-GGA Hessian, CC/C-PCM, Gaussian charge scheme
   Yang Guo               : DLPNO-NEVPT2, F12-NEVPT2, CIM, IAO-localization
   Andreas Hansen         : Spin unrestricted coupled pair/coupled cluster methods
   Benjamin Helmich-Paris : MC-RPA, TRAH-SCF, COSX integrals
   Lee Huntington         : MR-EOM, pCC
   Robert Izsak           : Overlap fitted RIJCOSX, COSX-SCS-MP3, EOM
   Marcus Kettner         : VPT2
   Christian Kollmar      : KDIIS, OOCD, Brueckner-CCSD(T), CCSD density, CASPT2, CASPT2-K
   Simone Kossmann        : Meta GGA functionals, TD-DFT gradient, OOMP2, MP2 Hessian
   Martin Krupicka        : Initial AUTO-CI
   Lucas Lang             : DCDCAS
   Marvin Lechner         : AUTO-CI (C++ implementation), FIC-MRCC
   Dagmar Lenk            : GEPOL surface, SMD
   Dimitrios Liakos       : Extrapolation schemes; Compound Job, initial MDCI parallelization
   Dimitrios Manganas     : Further ROCIS development; embedding schemes
   Dimitrios Pantazis     : SARC Basis sets
   Anastasios Papadopoulos: AUTO-CI, single reference methods and gradients
   Taras Petrenko         : DFT Hessian,TD-DFT gradient, ASA, ECA, R-Raman, ABS, FL, XAS/XES, NRVS
   Peter Pinski           : DLPNO-MP2, DLPNO-MP2 Gradient
   Christoph Reimann      : Effective Core Potentials
   Marius Retegan         : Local ZFS, SOC
   Christoph Riplinger    : Optimizer, TS searches, QM/MM, DLPNO-CCSD(T), (RO)-DLPNO pert. Triples
   Tobias Risthaus        : Range-separated hybrids, TD-DFT gradient, RPA, STAB
   Michael Roemelt        : Original ROCIS implementation
   Masaaki Saitow         : Open-shell DLPNO-CCSD energy and density
   Barbara Sandhoefer     : DKH picture change effects
   Avijit Sen             : IP-ROCIS
   Kantharuban Sivalingam : CASSCF convergence, NEVPT2, FIC-MRCI
   Bernardo de Souza      : ESD, SOC TD-DFT
   Georgi Stoychev        : AutoAux, RI-MP2 NMR, DLPNO-MP2 response
   Willem Van den Heuvel  : Paramagnetic NMR
   Boris Wezisla          : Elementary symmetry handling
   Frank Wennmohs         : Technical directorship


 We gratefully acknowledge several colleagues who have allowed us to
 interface, adapt or use parts of their codes:
   Stefan Grimme, W. Hujo, H. Kruse, P. Pracht,  : VdW corrections, initial TS optimization,
                  C. Bannwarth, S. Ehlert          DFT functionals, gCP, sTDA/sTD-DF
   Ed Valeev, F. Pavosevic, A. Kumar             : LibInt (2-el integral package), F12 methods
   Garnet Chan, S. Sharma, J. Yang, R. Olivares  : DMRG
   Ulf Ekstrom                                   : XCFun DFT Library
   Mihaly Kallay                                 : mrcc  (arbitrary order and MRCC methods)
   Jiri Pittner, Ondrej Demel                    : Mk-CCSD
   Frank Weinhold                                : gennbo (NPA and NBO analysis)
   Christopher J. Cramer and Donald G. Truhlar   : smd solvation model
   Lars Goerigk                                  : TD-DFT with DH, B97 family of functionals
   V. Asgeirsson, H. Jonsson                     : NEB implementation
   FAccTs GmbH                                   : IRC, NEB, NEB-TS, DLPNO-Multilevel, CI-OPT
                                                   MM, QMMM, 2- and 3-layer-ONIOM, Crystal-QMMM,
                                                   LR-CPCM, SF, NACMEs, symmetry and pop. for TD-DFT,
                                                   nearIR, NL-DFT gradient (VV10), updates on ESD,
                                                   ML-optimized integration grids
   S Lehtola, MJT Oliveira, MAL Marques          : LibXC Library
   Liviu Ungur et al                             : ANISO software


 Your calculation uses the libint2 library for the computation of 2-el integrals
 For citations please refer to: http://libint.valeyev.net

 Your ORCA version has been built with support for libXC version: 5.1.0
 For citations please refer to: https://tddft.org/programs/libxc/

 This ORCA versions uses:
   CBLAS   interface :  Fast vector & matrix operations
   LAPACKE interface :  Fast linear algebra routines
   SCALAPACK package :  Parallel linear algebra routines
   Shared memory     :  Shared parallel matrices
   BLAS/LAPACK       :  OpenBLAS 0.3.15  USE64BITINT DYNAMIC_ARCH NO_AFFINITY SkylakeX SINGLE_THREADED
        Core in use  :  SkylakeX
   Copyright (c) 2011-2014, The OpenBLAS Project


================================================================================

----- Orbital basis set information -----
Your calculation utilizes the basis: def2-SVP
   F. Weigend and R. Ahlrichs, Phys. Chem. Chem. Phys. 7, 3297 (2005).

================================================================================
                                        WARNINGS
                       Please study these warnings very carefully!
================================================================================


INFO   : the flag for use of the SHARK integral package has been found!

================================================================================
                                       INPUT FILE
================================================================================
NAME = START_a002_b006.inp
|  1> !HF  DEF2-SVP 
|  2> %maxcore 20
|  3> %pal nprocs = 1  end
|  4> %scf
|  5> MAXITER 0
|  6> end
|  7> %output XYZFILE 1 end
|  8> * xyz 0 1
|  9> C -3.152174 -3.127095 -4.515078
| 10> C -2.560393 -2.328828 -3.389926
| 11> C -1.98681 -2.953377 -2.285941
| 12> C -1.485174 -2.210837 -1.228792
| 13> C -1.499905 -0.810134 -1.223989
| 14> B -0.9009 0.008033 0.040051
| 15> C -1.327999 -0.726576 1.416194
| 16> C -2.701351 -0.901377 1.638967
| 17> C -3.194316 -1.514448 2.77478
| 18> C -2.335402 -2.006041 3.757367
| 19> C -0.973887 -1.860614 3.544366
| 20> C -0.485361 -1.235714 2.399631
| 21> C -2.878414 -2.669102 4.989419
| 22> C -1.219718 1.598451 0.015984
| 23> C -1.999207 2.237843 0.978917
| 24> C -2.254912 3.602781 0.933057
| 25> C -1.735566 4.400461 -0.078484
| 26> C -0.939591 3.782053 -1.038767
| 27> C -0.69258 2.420079 -0.987979
| 28> C -2.0407 5.868325 -0.151888
| 29> C -2.08459 -0.202255 -2.335306
| 30> C -2.603503 -0.939997 -3.391435
| 31> F 5.579195 0.77567 0.739623
| 32> C 5.018095 0.161639 -0.299552
| 33> C 3.52136 0.07149 -0.166553
| 34> C 2.805909 -0.731091 -1.039817
| 35> C 1.427952 -0.759456 -0.949912
| 36> N 0.762679 -0.035902 -0.052182
| 37> C 1.447552 0.730506 0.799002
| 38> C 2.825435 0.806921 0.779206
| 39> F 5.343126 0.843664 -1.399164
| 40> F 5.563675 -1.050432 -0.40231
| 41> H -3.068118 -2.604557 -5.46795
| 42> H -2.664093 -4.09567 -4.622998
| 43> H -4.213806 -3.318417 -4.344855
| 44> H -1.947448 -4.036428 -2.244839
| 45> H -1.081822 -2.740031 -0.371279
| 46> H -3.404095 -0.554415 0.889371
| 47> H -4.266365 -1.623176 2.898858
| 48> H -0.2748 -2.244655 4.278891
| 49> H 0.592925 -1.174891 2.294985
| 50> H -2.081712 -3.071891 5.614052
| 51> H -3.548 -3.493071 4.737767
| 52> H -3.449879 -1.967655 5.600187
| 53> H -2.41751 1.66267 1.79565
| 54> H -2.867923 4.05371 1.705674
| 55> H -0.508112 4.374518 -1.83825
| 56> H -0.066176 1.988 -1.762917
| 57> H -2.250868 6.285638 0.832679
| 58> H -1.211966 6.431736 -0.581022
| 59> H -2.916398 6.057319 -0.776411
| 60> H -2.158517 0.876993 -2.378711
| 61> H -3.055316 -0.421823 -4.230248
| 62> H 3.292503 -1.330409 -1.796257
| 63> H 0.829808 -1.361905 -1.6179
| 64> H 0.860023 1.307419 1.498888
| 65> H 3.324611 1.447208 1.491192
| 66> *
| 67> 
| 68>                          ****END OF INPUT****
================================================================================

                       ****************************
                       * Single Point Calculation *
                       ****************************

---------------------------------
CARTESIAN COORDINATES (ANGSTROEM)
---------------------------------
  C     -3.152174   -3.127095   -4.515078
  C     -2.560393   -2.328828   -3.389926
  C     -1.986810   -2.953377   -2.285941
  C     -1.485174   -2.210837   -1.228792
  C     -1.499905   -0.810134   -1.223989
  B     -0.900900    0.008033    0.040051
  C     -1.327999   -0.726576    1.416194
  C     -2.701351   -0.901377    1.638967
  C     -3.194316   -1.514448    2.774780
  C     -2.335402   -2.006041    3.757367
  C     -0.973887   -1.860614    3.544366
  C     -0.485361   -1.235714    2.399631
  C     -2.878414   -2.669102    4.989419
  C     -1.219718    1.598451    0.015984
  C     -1.999207    2.237843    0.978917
  C     -2.254912    3.602781    0.933057
  C     -1.735566    4.400461   -0.078484
  C     -0.939591    3.782053   -1.038767
  C     -0.692580    2.420079   -0.987979
  C     -2.040700    5.868325   -0.151888
  C     -2.084590   -0.202255   -2.335306
  C     -2.603503   -0.939997   -3.391435
  F      5.579195    0.775670    0.739623
  C      5.018095    0.161639   -0.299552
  C      3.521360    0.071490   -0.166553
  C      2.805909   -0.731091   -1.039817
  C      1.427952   -0.759456   -0.949912
  N      0.762679   -0.035902   -0.052182
  C      1.447552    0.730506    0.799002
  C      2.825435    0.806921    0.779206
  F      5.343126    0.843664   -1.399164
  F      5.563675   -1.050432   -0.402310
  H     -3.068118   -2.604557   -5.467950
  H     -2.664093   -4.095670   -4.622998
  H     -4.213806   -3.318417   -4.344855
  H     -1.947448   -4.036428   -2.244839
  H     -1.081822   -2.740031   -0.371279
  H     -3.404095   -0.554415    0.889371
  H     -4.266365   -1.623176    2.898858
  H     -0.274800   -2.244655    4.278891
  H      0.592925   -1.174891    2.294985
  H     -2.081712   -3.071891    5.614052
  H     -3.548000   -3.493071    4.737767
  H     -3.449879   -1.967655    5.600187
  H     -2.417510    1.662670    1.795650
  H     -2.867923    4.053710    1.705674
  H     -0.508112    4.374518   -1.838250
  H     -0.066176    1.988000   -1.762917
  H     -2.250868    6.285638    0.832679
  H     -1.211966    6.431736   -0.581022
  H     -2.916398    6.057319   -0.776411
  H     -2.158517    0.876993   -2.378711
  H     -3.055316   -0.421823   -4.230248
  H      3.292503   -1.330409   -1.796257
  H      0.829808   -1.361905   -1.617900
  H      0.860023    1.307419    1.498888
  H      3.324611    1.447208    1.491192

----------------------------
CARTESIAN COORDINATES (A.U.)
----------------------------
  NO LB      ZA    FRAG     MASS         X           Y           Z
   0 C     6.0000    0    12.011   -5.956746   -5.909353   -8.532261
   1 C     6.0000    0    12.011   -4.838442   -4.400847   -6.406032
   2 C     6.0000    0    12.011   -3.754527   -5.581074   -4.319802
   3 C     6.0000    0    12.011   -2.806572   -4.177876   -2.322080
   4 C     6.0000    0    12.011   -2.834410   -1.530931   -2.313004
   5 B     5.0000    0    10.810   -1.702454    0.015180    0.075685
   6 C     6.0000    0    12.011   -2.509554   -1.373030    2.676219
   7 C     6.0000    0    12.011   -5.104814   -1.703356    3.097199
   8 C     6.0000    0    12.011   -6.036382   -2.861892    5.243574
   9 C     6.0000    0    12.011   -4.413270   -3.790868    7.100395
  10 C     6.0000    0    12.011   -1.840380   -3.516051    6.697881
  11 C     6.0000    0    12.011   -0.917199   -2.335161    4.534645
  12 C     6.0000    0    12.011   -5.439414   -5.043872    9.428635
  13 C     6.0000    0    12.011   -2.304933    3.020635    0.030205
  14 C     6.0000    0    12.011   -3.777954    4.228910    1.849885
  15 C     6.0000    0    12.011   -4.261166    6.808269    1.763222
  16 C     6.0000    0    12.011   -3.279744    8.315666   -0.148313
  17 C     6.0000    0    12.011   -1.775570    7.147044   -1.962985
  18 C     6.0000    0    12.011   -1.308787    4.573287   -1.867010
  19 C     6.0000    0    12.011   -3.856364   11.089527   -0.287027
  20 C     6.0000    0    12.011   -3.939304   -0.382207   -4.413089
  21 C     6.0000    0    12.011   -4.919908   -1.776337   -6.408883
  22 F     9.0000    0    18.998   10.543151    1.465804    1.397685
  23 C     6.0000    0    12.011    9.482825    0.305453   -0.566071
  24 C     6.0000    0    12.011    6.654406    0.135097   -0.314740
  25 C     6.0000    0    12.011    5.302400   -1.381562   -1.964969
  26 C     6.0000    0    12.011    2.698438   -1.435164   -1.795074
  27 N     7.0000    0    14.007    1.441254   -0.067845   -0.098610
  28 C     6.0000    0    12.011    2.735477    1.380456    1.509895
  29 C     6.0000    0    12.011    5.339298    1.524860    1.472486
  30 F     9.0000    0    18.998   10.097045    1.594294   -2.644037
  31 F     9.0000    0    18.998   10.513822   -1.985029   -0.760256
  32 H     1.0000    0     1.008   -5.797903   -4.921899  -10.332928
  33 H     1.0000    0     1.008   -5.034406   -7.739695   -8.736200
  34 H     1.0000    0     1.008   -7.962939   -6.270899   -8.210586
  35 H     1.0000    0     1.008   -3.680143   -7.627743   -4.242131
  36 H     1.0000    0     1.008   -2.044347   -5.177908   -0.701616
  37 H     1.0000    0     1.008   -6.432807   -1.047693    1.680668
  38 H     1.0000    0     1.008   -8.062261   -3.067358    5.478048
  39 H     1.0000    0     1.008   -0.519297   -4.241783    8.085932
  40 H     1.0000    0     1.008    1.120466   -2.220222    4.336893
  41 H     1.0000    0     1.008   -3.933866   -5.805033   10.609021
  42 H     1.0000    0     1.008   -6.704748   -6.600948    8.953082
  43 H     1.0000    0     1.008   -6.519327   -3.718329   10.582820
  44 H     1.0000    0     1.008   -4.568432    3.141991    3.393287
  45 H     1.0000    0     1.008   -5.419589    7.660402    3.223257
  46 H     1.0000    0     1.008   -0.960193    8.266641   -3.473789
  47 H     1.0000    0     1.008   -0.125055    3.756776   -3.331430
  48 H     1.0000    0     1.008   -4.253524   11.878134    1.573535
  49 H     1.0000    0     1.008   -2.290284   12.154220   -1.097972
  50 H     1.0000    0     1.008   -5.511194   11.446674   -1.467204
  51 H     1.0000    0     1.008   -4.079006    1.657277   -4.495112
  52 H     1.0000    0     1.008   -5.773710   -0.797130   -7.994010
  53 H     1.0000    0     1.008    6.221929   -2.514109   -3.394434
  54 H     1.0000    0     1.008    1.568110   -2.573627   -3.057388
  55 H     1.0000    0     1.008    1.625208    2.470664    2.832488
  56 H     1.0000    0     1.008    6.282604    2.734827    2.817944

--------------------------------
INTERNAL COORDINATES (ANGSTROEM)
--------------------------------
 C      0   0   0     0.000000000000     0.00000000     0.00000000
 C      1   0   0     1.501133564462     0.00000000     0.00000000
 C      2   1   0     1.392063860430   121.21673839     0.00000000
 C      3   2   1     1.385845711577   120.91168059   182.32158599
 C      4   3   2     1.400788694050   122.31536378   358.58826693
 B      5   4   3     1.620494168923   120.24136438   179.93909263
 C      6   5   4     1.617353855880   109.67992393   319.45015687
 C      7   6   5     1.402240676572   116.77116921   302.58443302
 C      8   7   6     1.381644568344   122.36842895   179.96795492
 C      9   8   7     1.394587447819   121.05601262   359.31337276
 C     10   9   8     1.385727799229   117.37651755   359.67780590
 C      7   6   5     1.391549005625   127.41605343   121.05206822
 C     10   9   8     1.500821126107   120.75012542   179.91332538
 C      6   5   4     1.622237205940   114.25296243   190.09802907
 C     14   6   5     1.394153934569   123.31649624   116.33796020
 C     15  14   6     1.389440150013   122.04836861   179.95882324
 C     16  15  14     1.388966826385   121.29169065   359.65006115
 C     17  16  15     1.392173873903   117.45273473   359.47682641
 C     18  17  16     1.385123471659   120.89380020     0.70460568
 C     17  16  15     1.501039515692   121.41342322   178.30449929
 C      5   4   3     1.395134008744   115.93575210     1.66320068
 C     21   5   4     1.388863717135   122.06412004   359.11184427
 F      6   5   4     6.562796565183   120.47683337    78.49518278
 C     23   6   5     1.331071733449    56.39897044     2.72260100
 C     24  23   6     1.505334260697   112.19630906   357.21597800
 C     25  24  23     1.385134076058   119.50953061   190.93835988
 C     26  25  24     1.381178111649   119.08967347   182.97297264
 N     27  26  25     1.331179066972   122.09549062     0.21544686
 C     28  27  26     1.334521056578   119.06587116   359.22816790
 C     29  28  27     1.380142273655   122.34433182     0.33996969
 F     24  23   6     1.334147593833   107.75466898   118.72600542
 F     24  23   6     1.333166475728   107.88273373   234.57564108
 H      1   2   3     1.089989183875   111.71023088   210.46096020
 H      1   2   3     1.089957485219   111.73021465   331.25778176
 H      1   2   3     1.092081718937   111.07334389    90.86041192
 H      3   2   1     1.084545162752   119.54065941     1.25551843
 H      4   3   2     1.085388258048   118.42089309   177.65179231
 H      8   7   6     1.084493394261   119.00929549     0.70187849
 H      9   8   7     1.084668698944   119.41705438   179.90564773
 H     11  10   9     1.084314114487   119.48313066   180.96756119
 H     12   7   6     1.085058026301   120.87006152   359.48524998
 H     13  10   9     1.089559287058   111.67786353   175.11143533
 H     13  10   9     1.091145752620   111.48867540    54.74788953
 H     13  10   9     1.091621587299   111.39699573   295.24385846
 H     15  14   6     1.082983920946   119.55568651     0.37335272
 H     16  15  14     1.084461376837   119.27424515   179.96965993
 H     18  17  16     1.084602217845   119.55468528   180.62259113
 H     19  18  17     1.086095362895   117.89607948   179.90063261
 H     20  17  16     1.089813243488   111.68363043    27.61280993
 H     20  17  16     1.090132096414   111.72290492   148.34095314
 H     20  17  16     1.092059841203   111.11309266   267.96325196
 H     21   5   4     1.082647422228   119.66302693   177.93989831
 H     22  21   5     1.084548998531   119.33993498   179.52305918
 H     26  25  24     1.080813239908   122.00505470     2.43720245
 H     27  26  25     1.080244884497   121.57552987   179.27484238
 H     29  28  27     1.080675413066   116.14542007   179.23513815
 H     30  29  28     1.079846371268   119.00471319   179.80591177

---------------------------
INTERNAL COORDINATES (A.U.)
---------------------------
 C      0   0   0     0.000000000000     0.00000000     0.00000000
 C      1   0   0     2.836731327270     0.00000000     0.00000000
 C      2   1   0     2.630619457142   121.21673839     0.00000000
 C      3   2   1     2.618868858750   120.91168059   182.32158599
 C      4   3   2     2.647107003248   122.31536378   358.58826693
 B      5   4   3     3.062290180881   120.24136438   179.93909263
 C      6   5   4     3.056355849255   109.67992393   319.45015687
 C      7   6   5     2.649850852566   116.77116921   302.58443302
 C      8   7   6     2.610929848590   122.36842895   179.96795492
 C      9   8   7     2.635388346182   121.05601262   359.31337276
 C     10   9   8     2.618646036704   117.37651755   359.67780590
 C      7   6   5     2.629646522562   127.41605343   121.05206822
 C     10   9   8     2.836140904345   120.75012542   179.91332538
 C      6   5   4     3.065584043485   114.25296243   190.09802907
 C     14   6   5     2.634569124864   123.31649624   116.33796020
 C     15  14   6     2.625661363000   122.04836861   179.95882324
 C     16  15  14     2.624766910969   121.29169065   359.65006115
 C     17  16  15     2.630827352477   117.45273473   359.47682641
 C     18  17  16     2.617504023102   120.89380020     0.70460568
 C     17  16  15     2.836553600851   121.41342322   178.30449929
 C      5   4   3     2.636421196646   115.93575210     1.66320068
 C     21   5   4     2.624572062725   122.06412004   359.11184427
 F      6   5   4    12.401888180835   120.47683337    78.49518278
 C     23   6   5     2.515361040822    56.39897044     2.72260100
 C     24  23   6     2.844669492725   112.19630906   357.21597800
 C     25  24  23     2.617524062512   119.50953061   190.93835988
 C     26  25  24     2.610048373184   119.08967347   182.97297264
 N     27  26  25     2.515563871786   122.09549062     0.21544686
 C     28  27  26     2.521879316883   119.06587116   359.22816790
 C     29  28  27     2.608090923056   122.34433182     0.33996969
 F     24  23   6     2.521173574574   107.75466898   118.72600542
 F     24  23   6     2.519319530051   107.88273373   234.57564108
 H      1   2   3     2.059781046460   111.71023088   210.46096020
 H      1   2   3     2.059721144682   111.73021465   331.25778176
 H      1   2   3     2.063735364653   111.07334389    90.86041192
 H      3   2   1     2.049493337471   119.54065941     1.25551843
 H      4   3   2     2.051086556685   118.42089309   177.65179231
 H      8   7   6     2.049395509200   119.00929549     0.70187849
 H      9   8   7     2.049726787041   119.41705438   179.90564773
 H     11  10   9     2.049056719525   119.48313066   180.96756119
 H     12   7   6     2.050462509123   120.87006152   359.48524998
 H     13  10   9     2.058968659210   111.67786353   175.11143533
 H     13  10   9     2.061966644643   111.48867540    54.74788953
 H     13  10   9     2.062865841872   111.39699573   295.24385846
 H     15  14   6     2.046543018028   119.55568651     0.37335272
 H     16  15  14     2.049335005037   119.27424515   179.96965993
 H     18  17  16     2.049601155971   119.55468528   180.62259113
 H     19  18  17     2.052422791192   117.89607948   179.90063261
 H     20  17  16     2.059448567313   111.68363043    27.61280993
 H     20  17  16     2.060051112021   111.72290492   148.34095314
 H     20  17  16     2.063694021728   111.11309266   267.96325196
 H     21   5   4     2.045907127608   119.66302693   177.93989831
 H     22  21   5     2.049500586042   119.33993498   179.52305918
 H     26  25  24     2.042441025342   122.00505470     2.43720245
 H     27  26  25     2.041366989268   121.57552987   179.27484238
 H     29  28  27     2.042180570358   116.14542007   179.23513815
 H     30  29  28     2.040613908405   119.00471319   179.80591177

---------------------
BASIS SET INFORMATION
---------------------
There are 5 groups of distinct atoms

 Group   1 Type C   : 7s4p1d contracted to 3s2p1d pattern {511/31/1}
 Group   2 Type B   : 7s4p1d contracted to 3s2p1d pattern {511/31/1}
 Group   3 Type F   : 7s4p1d contracted to 3s2p1d pattern {511/31/1}
 Group   4 Type N   : 7s4p1d contracted to 3s2p1d pattern {511/31/1}
 Group   5 Type H   : 4s1p contracted to 2s1p pattern {31/1}

Atom   0C    basis set group =>   1
Atom   1C    basis set group =>   1
Atom   2C    basis set group =>   1
Atom   3C    basis set group =>   1
Atom   4C    basis set group =>   1
Atom   5B    basis set group =>   2
Atom   6C    basis set group =>   1
Atom   7C    basis set group =>   1
Atom   8C    basis set group =>   1
Atom   9C    basis set group =>   1
Atom  10C    basis set group =>   1
Atom  11C    basis set group =>   1
Atom  12C    basis set group =>   1
Atom  13C    basis set group =>   1
Atom  14C    basis set group =>   1
Atom  15C    basis set group =>   1
Atom  16C    basis set group =>   1
Atom  17C    basis set group =>   1
Atom  18C    basis set group =>   1
Atom  19C    basis set group =>   1
Atom  20C    basis set group =>   1
Atom  21C    basis set group =>   1
Atom  22F    basis set group =>   3
Atom  23C    basis set group =>   1
Atom  24C    basis set group =>   1
Atom  25C    basis set group =>   1
Atom  26C    basis set group =>   1
Atom  27N    basis set group =>   4
Atom  28C    basis set group =>   1
Atom  29C    basis set group =>   1
Atom  30F    basis set group =>   3
Atom  31F    basis set group =>   3
Atom  32H    basis set group =>   5
Atom  33H    basis set group =>   5
Atom  34H    basis set group =>   5
Atom  35H    basis set group =>   5
Atom  36H    basis set group =>   5
Atom  37H    basis set group =>   5
Atom  38H    basis set group =>   5
Atom  39H    basis set group =>   5
Atom  40H    basis set group =>   5
Atom  41H    basis set group =>   5
Atom  42H    basis set group =>   5
Atom  43H    basis set group =>   5
Atom  44H    basis set group =>   5
Atom  45H    basis set group =>   5
Atom  46H    basis set group =>   5
Atom  47H    basis set group =>   5
Atom  48H    basis set group =>   5
Atom  49H    basis set group =>   5
Atom  50H    basis set group =>   5
Atom  51H    basis set group =>   5
Atom  52H    basis set group =>   5
Atom  53H    basis set group =>   5
Atom  54H    basis set group =>   5
Atom  55H    basis set group =>   5
Atom  56H    basis set group =>   5
------------------------------------------------------------------------------
                           ORCA GTO INTEGRAL CALCULATION
------------------------------------------------------------------------------
------------------------------------------------------------------------------
                   ___                                                        
                  /   \      - P O W E R E D   B Y -                         
                 /     \                                                     
                 |  |  |   _    _      __       _____    __    __             
                 |  |  |  | |  | |    /  \     |  _  \  |  |  /  |          
                  \  \/   | |  | |   /    \    | | | |  |  | /  /          
                 / \  \   | |__| |  /  /\  \   | |_| |  |  |/  /          
                |  |  |   |  __  | /  /__\  \  |    /   |      \           
                |  |  |   | |  | | |   __   |  |    \   |  |\   \          
                \     /   | |  | | |  |  |  |  | |\  \  |  | \   \       
                 \___/    |_|  |_| |__|  |__|  |_| \__\ |__|  \__/        
                                                                              
                      - O R C A' S   B I G   F R I E N D -                    
                                      &                                       
                       - I N T E G R A L  F E E D E R -                       
                                                                              
 v1 FN, 2020, v2 2021                                                         
------------------------------------------------------------------------------


Reading SHARK input file START_a002_b006.SHARKINP.tmp ... ok
----------------------
SHARK INTEGRAL PACKAGE
----------------------

Number of atoms                             ...     57
Number of basis functions                   ...    573
Number of shells                            ...    267
Maximum angular momentum                    ...      2
Integral batch strategy                     ... SHARK/LIBINT Hybrid
RI-J (if used) integral strategy            ... SPLIT-RIJ (Revised 2003 algorithm where possible)
Printlevel                                  ...      1
Contraction scheme used                     ... SEGMENTED contraction
Coulomb Range Separation                    ... NOT USED
Exchange Range Separation                   ... NOT USED
Finite Nucleus Model                        ... NOT USED
Auxiliary Coulomb fitting basis             ... NOT available
Auxiliary J/K fitting basis                 ... NOT available
Auxiliary Correlation fitting basis         ... NOT available
Auxiliary 'external' fitting basis          ... NOT available
Integral threshold                          ...     1.000000e-10
Primitive cut-off                           ...     1.000000e-11
Primitive pair pre-selection threshold      ...     1.000000e-11

Calculating pre-screening integrals         ... done (  0.1 sec) Dimension = 267
Organizing shell pair data                  ... done (  0.1 sec)
Shell pair information
Total number of shell pairs                 ...     35778
Shell pairs after pre-screening             ...     22348
Total number of primitive shell pairs       ...    130286
Primitive shell pairs kept                  ...     49480
          la=0 lb=0:   6936 shell pairs
          la=1 lb=0:   8385 shell pairs
          la=1 lb=1:   2583 shell pairs
          la=2 lb=0:   2621 shell pairs
          la=2 lb=1:   1592 shell pairs
          la=2 lb=2:    231 shell pairs

Calculating one electron integrals          ... done (  0.2 sec)
Calculating Nuclear repulsion               ... done (  0.0 sec) ENN=   3089.530054768106 Eh

SHARK setup successfully completed in   0.8 seconds

Maximum memory used throughout the entire GTOINT-calculation: 127.1 MB
-------------------------------------------------------------------------------
                                 ORCA SCF
-------------------------------------------------------------------------------

------------
SCF SETTINGS
------------
Hamiltonian:
 Ab initio Hamiltonian  Method          .... Hartree-Fock(GTOs)


General Settings:
 Integral files         IntName         .... START_a002_b006
 Hartree-Fock type      HFTyp           .... RHF
 Total Charge           Charge          ....    0
 Multiplicity           Mult            ....    1
 Number of Electrons    NEL             ....  226
 Basis Dimension        Dim             ....  573
 Nuclear Repulsion      ENuc            ....   3089.5300547681 Eh

Convergence Acceleration:
 DIIS                   CNVDIIS         .... on
   Start iteration      DIISMaxIt       ....    12
   Startup error        DIISStart       ....  0.200000
   # of expansion vecs  DIISMaxEq       ....     5
   Bias factor          DIISBfac        ....   1.050
   Max. coefficient     DIISMaxC        ....  10.000
 Trust-Rad. Augm. Hess. CNVTRAH         .... auto
   Auto Start mean grad. ratio tolernc. ....  1.125000
   Auto Start start iteration           ....    20
   Auto Start num. interpolation iter.  ....    10
   Max. Number of Micro iterations      ....    16
   Max. Number of Macro iterations      .... Maxiter - #DIIS iter
   Number of Davidson start vectors     ....     2
   Converg. threshold I  (grad. norm)   ....   5.000e-05
   Converg. threshold II (energy diff.) ....   1.000e-06
   Grad. Scal. Fac. for Micro threshold ....   0.100
   Minimum threshold for Micro iter.    ....   0.010
   NR start threshold (gradient norm)   ....   0.001
   Initial trust radius                 ....   0.400
   Minimum AH scaling param. (alpha)    ....   1.000
   Maximum AH scaling param. (alpha)    .... 1000.000
   Orbital update algorithm             .... Taylor
   White noise on init. David. guess    .... on
   Maximum white noise                  ....   0.010
   Quad. conv. algorithm                .... NR
 SOSCF                  CNVSOSCF        .... on
   Start iteration      SOSCFMaxIt      ....   150
   Startup grad/error   SOSCFStart      ....  0.003300
 Level Shifting         CNVShift        .... on
   Level shift para.    LevelShift      ....    0.2500
   Turn off err/grad.   ShiftErr        ....    0.0010
 Zerner damping         CNVZerner       .... off
 Static damping         CNVDamp         .... on
   Fraction old density DampFac         ....    0.7000
   Max. Damping (<1)    DampMax         ....    0.9800
   Min. Damping (>=0)   DampMin         ....    0.0000
   Turn off err/grad.   DampErr         ....    0.1000
 Fernandez-Rico         CNVRico         .... off

SCF Procedure:
 Maximum # iterations   MaxIter         ....     0
 SCF integral mode      SCFMode         .... Direct
   Integral package                     .... SHARK and LIBINT hybrid scheme
 Reset frequency        DirectResetFreq ....    20
 Integral Threshold     Thresh          ....  1.000e-10 Eh
 Primitive CutOff       TCut            ....  1.000e-11 Eh

Convergence Tolerance:
 Convergence Check Mode ConvCheckMode   .... Total+1el-Energy
 Convergence forced     ConvForced      .... 0
 Energy Change          TolE            ....  1.000e-06 Eh
 1-El. energy change                    ....  1.000e-03 Eh
 Orbital Gradient       TolG            ....  5.000e-05
 Orbital Rotation angle TolX            ....  5.000e-05
 DIIS Error             TolErr          ....  1.000e-06


Diagonalization of the overlap matrix:
Smallest eigenvalue                        ... 2.223e-04
Time for diagonalization                   ...    0.049 sec
Threshold for overlap eigenvalues          ... 1.000e-08
Number of eigenvalues below threshold      ... 0
Time for construction of square roots      ...    0.017 sec
Total time needed                          ...    0.067 sec

Time for model grid setup =    2.155 sec

------------------------------
INITIAL GUESS: MODEL POTENTIAL
------------------------------
Loading Hartree-Fock densities                     ... done
Calculating cut-offs                               ... done
Initializing the effective Hamiltonian             ... done
Setting up the integral package (SHARK)            ... done
Starting the Coulomb interaction                   ... done (   2.6 sec)
Reading the grid                                   ... done
Mapping shells                                     ... done
Starting the XC term evaluation                    ... done (   0.8 sec)
Transforming the Hamiltonian                       ... done (   0.0 sec)
Diagonalizing the Hamiltonian                      ... done (   0.0 sec)
Back transforming the eigenvectors                 ... done (   0.0 sec)
Now organizing SCF variables                       ... done
                      ------------------
                      INITIAL GUESS DONE (   5.7 sec)
                      ------------------

     ****MaxIter==0 has been chosen - skipping the SCF****

!!!!!!!!!!!!!!!!!!!!!!!!!!!!!!!!!!!!!!!!!!!!!!!!!!!!!!!!!!!
!! SERIOUS WARNING: The orbitals and populations did NOT !!
!!                  come from a CONVERGED calculation    !!
!!!!!!!!!!!!!!!!!!!!!!!!!!!!!!!!!!!!!!!!!!!!!!!!!!!!!!!!!!!

THE WAVEFUNCTION AND DENSITY WILL STILL BE STORED BUT BE CAREFUL
MAKE SURE THAT WHAT YOU INPUT MAKES ACTUALLY SENSE!

             **** DENSITY START_a002_b006.scfp WAS UPDATED ****
----------------
ORBITAL ENERGIES
----------------

  NO   OCC          E(Eh)            E(eV) 
   0   2.0000     -24.181471      -658.0113 
   1   2.0000     -24.181074      -658.0005 
   2   2.0000     -24.180839      -657.9941 
   3   2.0000     -14.066635      -382.7726 
   4   2.0000      -9.966018      -271.1891 
   5   2.0000      -9.966015      -271.1891 
   6   2.0000      -9.966005      -271.1888 
   7   2.0000      -9.963243      -271.1136 
   8   2.0000      -9.963059      -271.1086 
   9   2.0000      -9.962946      -271.1055 
  10   2.0000      -9.962405      -271.0908 
  11   2.0000      -9.962352      -271.0894 
  12   2.0000      -9.962013      -271.0802 
  13   2.0000      -9.961743      -271.0728 
  14   2.0000      -9.961733      -271.0725 
  15   2.0000      -9.961683      -271.0712 
  16   2.0000      -9.961528      -271.0670 
  17   2.0000      -9.961458      -271.0651 
  18   2.0000      -9.961423      -271.0641 
  19   2.0000      -9.961402      -271.0635 
  20   2.0000      -9.961384      -271.0630 
  21   2.0000      -9.961309      -271.0610 
  22   2.0000      -9.961294      -271.0606 
  23   2.0000      -9.961233      -271.0589 
  24   2.0000      -9.959659      -271.0161 
  25   2.0000      -9.959616      -271.0149 
  26   2.0000      -9.956342      -270.9258 
  27   2.0000      -9.956238      -270.9230 
  28   2.0000      -9.956078      -270.9187 
  29   2.0000      -9.956028      -270.9173 
  30   2.0000      -9.920994      -269.9640 
  31   2.0000      -6.592526      -179.3918 
  32   2.0000      -1.214023       -33.0352 
  33   2.0000      -1.132893       -30.8276 
  34   2.0000      -1.131564       -30.7914 
  35   2.0000      -1.014393       -27.6030 
  36   2.0000      -0.928534       -25.2667 
  37   2.0000      -0.924479       -25.1563 
  38   2.0000      -0.924174       -25.1480 
  39   2.0000      -0.875107       -23.8129 
  40   2.0000      -0.846191       -23.0260 
  41   2.0000      -0.836795       -22.7703 
  42   2.0000      -0.836004       -22.7488 
  43   2.0000      -0.822690       -22.3865 
  44   2.0000      -0.812843       -22.1186 
  45   2.0000      -0.811565       -22.0838 
  46   2.0000      -0.810775       -22.0623 
  47   2.0000      -0.768166       -20.9029 
  48   2.0000      -0.754658       -20.5353 
  49   2.0000      -0.753892       -20.5145 
  50   2.0000      -0.727396       -19.7935 
  51   2.0000      -0.715227       -19.4623 
  52   2.0000      -0.689044       -18.7498 
  53   2.0000      -0.684448       -18.6248 
  54   2.0000      -0.681991       -18.5579 
  55   2.0000      -0.678168       -18.4539 
  56   2.0000      -0.664633       -18.0856 
  57   2.0000      -0.664058       -18.0699 
  58   2.0000      -0.652637       -17.7591 
  59   2.0000      -0.637159       -17.3380 
  60   2.0000      -0.606309       -16.4985 
  61   2.0000      -0.604179       -16.4405 
  62   2.0000      -0.592397       -16.1200 
  63   2.0000      -0.586776       -15.9670 
  64   2.0000      -0.581262       -15.8169 
  65   2.0000      -0.575206       -15.6522 
  66   2.0000      -0.573540       -15.6068 
  67   2.0000      -0.570958       -15.5366 
  68   2.0000      -0.564393       -15.3579 
  69   2.0000      -0.560043       -15.2395 
  70   2.0000      -0.530547       -14.4369 
  71   2.0000      -0.530295       -14.4301 
  72   2.0000      -0.519019       -14.1232 
  73   2.0000      -0.518498       -14.1090 
  74   2.0000      -0.517597       -14.0845 
  75   2.0000      -0.514159       -13.9910 
  76   2.0000      -0.510544       -13.8926 
  77   2.0000      -0.508677       -13.8418 
  78   2.0000      -0.507085       -13.7985 
  79   2.0000      -0.503670       -13.7056 
  80   2.0000      -0.500991       -13.6327 
  81   2.0000      -0.500898       -13.6301 
  82   2.0000      -0.500599       -13.6220 
  83   2.0000      -0.495041       -13.4708 
  84   2.0000      -0.481911       -13.1135 
  85   2.0000      -0.475949       -12.9512 
  86   2.0000      -0.471727       -12.8364 
  87   2.0000      -0.471369       -12.8266 
  88   2.0000      -0.470514       -12.8033 
  89   2.0000      -0.459457       -12.5025 
  90   2.0000      -0.458190       -12.4680 
  91   2.0000      -0.454742       -12.3742 
  92   2.0000      -0.451338       -12.2815 
  93   2.0000      -0.448846       -12.2137 
  94   2.0000      -0.444960       -12.1080 
  95   2.0000      -0.441807       -12.0222 
  96   2.0000      -0.437908       -11.9161 
  97   2.0000      -0.432713       -11.7747 
  98   2.0000      -0.430513       -11.7149 
  99   2.0000      -0.428928       -11.6717 
 100   2.0000      -0.423598       -11.5267 
 101   2.0000      -0.420525       -11.4431 
 102   2.0000      -0.420380       -11.4391 
 103   2.0000      -0.402255       -10.9459 
 104   2.0000      -0.396385       -10.7862 
 105   2.0000      -0.380802       -10.3621 
 106   2.0000      -0.360419        -9.8075 
 107   2.0000      -0.357170        -9.7191 
 108   2.0000      -0.355041        -9.6612 
 109   2.0000      -0.354801        -9.6546 
 110   2.0000      -0.351657        -9.5691 
 111   2.0000      -0.344629        -9.3778 
 112   2.0000      -0.341546        -9.2939 
 113   0.0000      -0.189387        -5.1535 
 114   0.0000      -0.174945        -4.7605 
 115   0.0000      -0.169865        -4.6223 
 116   0.0000      -0.166609        -4.5337 
 117   0.0000      -0.164290        -4.4706 
 118   0.0000      -0.159122        -4.3299 
 119   0.0000      -0.158263        -4.3066 
 120   0.0000      -0.153001        -4.1634 
 121   0.0000      -0.046462        -1.2643 
 122   0.0000      -0.035549        -0.9674 
 123   0.0000      -0.033849        -0.9211 
 124   0.0000      -0.030408        -0.8274 
 125   0.0000      -0.026730        -0.7274 
 126   0.0000      -0.020031        -0.5451 
 127   0.0000      -0.015795        -0.4298 
 128   0.0000      -0.008053        -0.2191 
 129   0.0000       0.000543         0.0148 
 130   0.0000       0.003121         0.0849 
 131   0.0000       0.004840         0.1317 
 132   0.0000       0.005682         0.1546 
 133   0.0000       0.007463         0.2031 
 134   0.0000       0.008630         0.2348 
 135   0.0000       0.016549         0.4503 
 136   0.0000       0.020602         0.5606 
 137   0.0000       0.034391         0.9358 
 138   0.0000       0.039151         1.0654 
 139   0.0000       0.039779         1.0824 
 140   0.0000       0.042476         1.1558 
 141   0.0000       0.045209         1.2302 
 142   0.0000       0.049205         1.3389 
 143   0.0000       0.052199         1.4204 
 144   0.0000       0.053282         1.4499 
 145   0.0000       0.056496         1.5373 
 146   0.0000       0.058055         1.5798 
 147   0.0000       0.059102         1.6082 
 148   0.0000       0.062151         1.6912 
 149   0.0000       0.072028         1.9600 
 150   0.0000       0.076045         2.0693 
 151   0.0000       0.078554         2.1376 
 152   0.0000       0.081447         2.2163 
 153   0.0000       0.086397         2.3510 
 154   0.0000       0.089714         2.4412 
 155   0.0000       0.098127         2.6702 
 156   0.0000       0.102345         2.7850 
 157   0.0000       0.107501         2.9252 
 158   0.0000       0.114836         3.1248 
 159   0.0000       0.133323         3.6279 
 160   0.0000       0.135885         3.6976 
 161   0.0000       0.140066         3.8114 
 162   0.0000       0.141383         3.8472 
 163   0.0000       0.145633         3.9629 
 164   0.0000       0.146695         3.9918 
 165   0.0000       0.149302         4.0627 
 166   0.0000       0.152513         4.1501 
 167   0.0000       0.156962         4.2711 
 168   0.0000       0.158498         4.3130 
 169   0.0000       0.163355         4.4451 
 170   0.0000       0.173826         4.7301 
 171   0.0000       0.178169         4.8482 
 172   0.0000       0.180489         4.9114 
 173   0.0000       0.190683         5.1888 
 174   0.0000       0.193820         5.2741 
 175   0.0000       0.211651         5.7593 
 176   0.0000       0.218236         5.9385 
 177   0.0000       0.220915         6.0114 
 178   0.0000       0.228125         6.2076 
 179   0.0000       0.240317         6.5394 
 180   0.0000       0.249018         6.7761 
 181   0.0000       0.253964         6.9107 
 182   0.0000       0.257296         7.0014 
 183   0.0000       0.260949         7.1008 
 184   0.0000       0.266753         7.2587 
 185   0.0000       0.271637         7.3916 
 186   0.0000       0.276287         7.5182 
 187   0.0000       0.281344         7.6557 
 188   0.0000       0.282405         7.6846 
 189   0.0000       0.286921         7.8075 
 190   0.0000       0.288783         7.8582 
 191   0.0000       0.293453         7.9853 
 192   0.0000       0.298250         8.1158 
 193   0.0000       0.302497         8.2314 
 194   0.0000       0.304185         8.2773 
 195   0.0000       0.305775         8.3205 
 196   0.0000       0.307563         8.3692 
 197   0.0000       0.311903         8.4873 
 198   0.0000       0.317355         8.6357 
 199   0.0000       0.320731         8.7275 
 200   0.0000       0.322511         8.7760 
 201   0.0000       0.328613         8.9420 
 202   0.0000       0.336314         9.1516 
 203   0.0000       0.337290         9.1781 
 204   0.0000       0.342072         9.3082 
 205   0.0000       0.348693         9.4884 
 206   0.0000       0.351314         9.5597 
 207   0.0000       0.358368         9.7517 
 208   0.0000       0.363291         9.8856 
 209   0.0000       0.367777        10.0077 
 210   0.0000       0.371911        10.1202 
 211   0.0000       0.374649        10.1947 
 212   0.0000       0.377716        10.2782 
 213   0.0000       0.384268        10.4565 
 214   0.0000       0.388488        10.5713 
 215   0.0000       0.395360        10.7583 
 216   0.0000       0.397031        10.8038 
 217   0.0000       0.401650        10.9295 
 218   0.0000       0.408107        11.1051 
 219   0.0000       0.408998        11.1294 
 220   0.0000       0.415598        11.3090 
 221   0.0000       0.422343        11.4925 
 222   0.0000       0.425866        11.5884 
 223   0.0000       0.430125        11.7043 
 224   0.0000       0.440587        11.9890 
 225   0.0000       0.441385        12.0107 
 226   0.0000       0.459807        12.5120 
 227   0.0000       0.463815        12.6211 
 228   0.0000       0.478744        13.0273 
 229   0.0000       0.483286        13.1509 
 230   0.0000       0.486789        13.2462 
 231   0.0000       0.491335        13.3699 
 232   0.0000       0.496482        13.5100 
 233   0.0000       0.498773        13.5723 
 234   0.0000       0.500998        13.6329 
 235   0.0000       0.503728        13.7071 
 236   0.0000       0.505975        13.7683 
 237   0.0000       0.506721        13.7886 
 238   0.0000       0.510502        13.8915 
 239   0.0000       0.511427        13.9166 
 240   0.0000       0.513259        13.9665 
 241   0.0000       0.516683        14.0597 
 242   0.0000       0.518367        14.1055 
 243   0.0000       0.520929        14.1752 
 244   0.0000       0.521521        14.1913 
 245   0.0000       0.524210        14.2645 
 246   0.0000       0.526450        14.3254 
 247   0.0000       0.527485        14.3536 
 248   0.0000       0.531102        14.4520 
 249   0.0000       0.531403        14.4602 
 250   0.0000       0.534431        14.5426 
 251   0.0000       0.535241        14.5646 
 252   0.0000       0.538302        14.6479 
 253   0.0000       0.540604        14.7106 
 254   0.0000       0.546010        14.8577 
 255   0.0000       0.547934        14.9100 
 256   0.0000       0.549789        14.9605 
 257   0.0000       0.555460        15.1148 
 258   0.0000       0.558401        15.1949 
 259   0.0000       0.562353        15.3024 
 260   0.0000       0.564846        15.3702 
 261   0.0000       0.570018        15.5110 
 262   0.0000       0.571994        15.5647 
 263   0.0000       0.577624        15.7179 
 264   0.0000       0.582064        15.8388 
 265   0.0000       0.585514        15.9326 
 266   0.0000       0.590931        16.0800 
 267   0.0000       0.595089        16.1932 
 268   0.0000       0.597582        16.2610 
 269   0.0000       0.605087        16.4653 
 270   0.0000       0.612707        16.6726 
 271   0.0000       0.617942        16.8151 
 272   0.0000       0.623340        16.9619 
 273   0.0000       0.636623        17.3234 
 274   0.0000       0.639611        17.4047 
 275   0.0000       0.643638        17.5143 
 276   0.0000       0.647877        17.6296 
 277   0.0000       0.650770        17.7084 
 278   0.0000       0.663800        18.0629 
 279   0.0000       0.666725        18.1425 
 280   0.0000       0.672366        18.2960 
 281   0.0000       0.684170        18.6172 
 282   0.0000       0.688025        18.7221 
 283   0.0000       0.695755        18.9325 
 284   0.0000       0.701662        19.0932 
 285   0.0000       0.702419        19.1138 
 286   0.0000       0.711829        19.3698 
 287   0.0000       0.721670        19.6377 
 288   0.0000       0.727834        19.8054 
 289   0.0000       0.733431        19.9577 
 290   0.0000       0.745392        20.2831 
 291   0.0000       0.763595        20.7785 
 292   0.0000       0.773675        21.0528 
 293   0.0000       0.786074        21.3902 
 294   0.0000       0.812179        22.1005 
 295   0.0000       0.826180        22.4815 
 296   0.0000       0.839656        22.8482 
 297   0.0000       0.848540        23.0900 
 298   0.0000       0.853221        23.2173 
 299   0.0000       0.853915        23.2362 
 300   0.0000       0.862382        23.4666 
 301   0.0000       0.868468        23.6322 
 302   0.0000       0.876808        23.8592 
 303   0.0000       0.894443        24.3390 
 304   0.0000       0.903698        24.5909 
 305   0.0000       0.905600        24.6426 
 306   0.0000       0.919894        25.0316 
 307   0.0000       0.936834        25.4925 
 308   0.0000       0.949201        25.8291 
 309   0.0000       0.951455        25.8904 
 310   0.0000       0.967868        26.3370 
 311   0.0000       0.973150        26.4808 
 312   0.0000       0.977650        26.6032 
 313   0.0000       0.978051        26.6141 
 314   0.0000       0.991286        26.9743 
 315   0.0000       0.995274        27.0828 
 316   0.0000       0.999317        27.1928 
 317   0.0000       1.006053        27.3761 
 318   0.0000       1.024862        27.8879 
 319   0.0000       1.042558        28.3695 
 320   0.0000       1.059381        28.8272 
 321   0.0000       1.063791        28.9472 
 322   0.0000       1.070711        29.1355 
 323   0.0000       1.077880        29.3306 
 324   0.0000       1.081532        29.4300 
 325   0.0000       1.083421        29.4814 
 326   0.0000       1.086571        29.5671 
 327   0.0000       1.088357        29.6157 
 328   0.0000       1.093678        29.7605 
 329   0.0000       1.098885        29.9022 
 330   0.0000       1.106664        30.1139 
 331   0.0000       1.119267        30.4568 
 332   0.0000       1.128251        30.7013 
 333   0.0000       1.129673        30.7400 
 334   0.0000       1.139069        30.9956 
 335   0.0000       1.151572        31.3359 
 336   0.0000       1.156304        31.4646 
 337   0.0000       1.165567        31.7167 
 338   0.0000       1.179136        32.0859 
 339   0.0000       1.186608        32.2892 
 340   0.0000       1.196247        32.5515 
 341   0.0000       1.199831        32.6491 
 342   0.0000       1.208497        32.8849 
 343   0.0000       1.214596        33.0508 
 344   0.0000       1.227356        33.3980 
 345   0.0000       1.238848        33.7108 
 346   0.0000       1.247612        33.9493 
 347   0.0000       1.250463        34.0268 
 348   0.0000       1.268421        34.5155 
 349   0.0000       1.290351        35.1122 
 350   0.0000       1.296328        35.2749 
 351   0.0000       1.306264        35.5453 
 352   0.0000       1.308766        35.6133 
 353   0.0000       1.320975        35.9456 
 354   0.0000       1.330056        36.1927 
 355   0.0000       1.335815        36.3494 
 356   0.0000       1.339302        36.4443 
 357   0.0000       1.350781        36.7566 
 358   0.0000       1.353495        36.8305 
 359   0.0000       1.357207        36.9315 
 360   0.0000       1.357854        36.9491 
 361   0.0000       1.369817        37.2746 
 362   0.0000       1.382862        37.6296 
 363   0.0000       1.391523        37.8653 
 364   0.0000       1.392229        37.8845 
 365   0.0000       1.399761        38.0894 
 366   0.0000       1.400951        38.1218 
 367   0.0000       1.411891        38.4195 
 368   0.0000       1.433271        39.0013 
 369   0.0000       1.451807        39.5057 
 370   0.0000       1.459266        39.7086 
 371   0.0000       1.480782        40.2941 
 372   0.0000       1.490737        40.5650 
 373   0.0000       1.492673        40.6177 
 374   0.0000       1.496493        40.7217 
 375   0.0000       1.505713        40.9725 
 376   0.0000       1.511335        41.1255 
 377   0.0000       1.512991        41.1706 
 378   0.0000       1.516211        41.2582 
 379   0.0000       1.526457        41.5370 
 380   0.0000       1.540192        41.9108 
 381   0.0000       1.544199        42.0198 
 382   0.0000       1.549728        42.1702 
 383   0.0000       1.554014        42.2869 
 384   0.0000       1.555444        42.3258 
 385   0.0000       1.568826        42.6899 
 386   0.0000       1.573001        42.8035 
 387   0.0000       1.580135        42.9977 
 388   0.0000       1.582331        43.0574 
 389   0.0000       1.583307        43.0840 
 390   0.0000       1.590485        43.2793 
 391   0.0000       1.591459        43.3058 
 392   0.0000       1.593389        43.3583 
 393   0.0000       1.598215        43.4896 
 394   0.0000       1.601163        43.5699 
 395   0.0000       1.603452        43.6321 
 396   0.0000       1.606373        43.7116 
 397   0.0000       1.612839        43.8876 
 398   0.0000       1.617440        44.0128 
 399   0.0000       1.620445        44.0945 
 400   0.0000       1.634646        44.4810 
 401   0.0000       1.635300        44.4988 
 402   0.0000       1.641094        44.6564 
 403   0.0000       1.642213        44.6869 
 404   0.0000       1.643496        44.7218 
 405   0.0000       1.644603        44.7519 
 406   0.0000       1.645744        44.7830 
 407   0.0000       1.646447        44.8021 
 408   0.0000       1.669049        45.4171 
 409   0.0000       1.683850        45.8199 
 410   0.0000       1.689937        45.9855 
 411   0.0000       1.694676        46.1145 
 412   0.0000       1.696028        46.1513 
 413   0.0000       1.702330        46.3228 
 414   0.0000       1.704936        46.3937 
 415   0.0000       1.715765        46.6883 
 416   0.0000       1.727569        47.0095 
 417   0.0000       1.728475        47.0342 
 418   0.0000       1.733752        47.1778 
 419   0.0000       1.740206        47.3534 
 420   0.0000       1.762803        47.9683 
 421   0.0000       1.766218        48.0612 
 422   0.0000       1.772650        48.2363 
 423   0.0000       1.779801        48.4309 
 424   0.0000       1.785872        48.5960 
 425   0.0000       1.797982        48.9256 
 426   0.0000       1.806686        49.1624 
 427   0.0000       1.818462        49.4829 
 428   0.0000       1.820277        49.5323 
 429   0.0000       1.824128        49.6370 
 430   0.0000       1.825655        49.6786 
 431   0.0000       1.830297        49.8049 
 432   0.0000       1.836910        49.9849 
 433   0.0000       1.839906        50.0664 
 434   0.0000       1.847876        50.2833 
 435   0.0000       1.850650        50.3587 
 436   0.0000       1.853376        50.4329 
 437   0.0000       1.861103        50.6432 
 438   0.0000       1.867998        50.8308 
 439   0.0000       1.869028        50.8588 
 440   0.0000       1.871846        50.9355 
 441   0.0000       1.878616        51.1197 
 442   0.0000       1.886465        51.3333 
 443   0.0000       1.892779        51.5051 
 444   0.0000       1.901374        51.7390 
 445   0.0000       1.919689        52.2374 
 446   0.0000       1.926027        52.4098 
 447   0.0000       1.933412        52.6108 
 448   0.0000       1.936652        52.6990 
 449   0.0000       1.937794        52.7301 
 450   0.0000       1.942929        52.8698 
 451   0.0000       1.947494        52.9940 
 452   0.0000       1.951954        53.1154 
 453   0.0000       1.957794        53.2743 
 454   0.0000       1.968049        53.5533 
 455   0.0000       1.975280        53.7501 
 456   0.0000       1.978120        53.8274 
 457   0.0000       1.993700        54.2513 
 458   0.0000       1.999095        54.3981 
 459   0.0000       2.014823        54.8261 
 460   0.0000       2.024075        55.0779 
 461   0.0000       2.040280        55.5189 
 462   0.0000       2.043579        55.6086 
 463   0.0000       2.057706        55.9930 
 464   0.0000       2.058491        56.0144 
 465   0.0000       2.065461        56.2041 
 466   0.0000       2.067302        56.2542 
 467   0.0000       2.070749        56.3479 
 468   0.0000       2.078586        56.5612 
 469   0.0000       2.083544        56.6961 
 470   0.0000       2.094318        56.9893 
 471   0.0000       2.096720        57.0546 
 472   0.0000       2.103668        57.2437 
 473   0.0000       2.115551        57.5671 
 474   0.0000       2.122994        57.7696 
 475   0.0000       2.126003        57.8515 
 476   0.0000       2.137189        58.1559 
 477   0.0000       2.148671        58.4683 
 478   0.0000       2.152934        58.5843 
 479   0.0000       2.159729        58.7692 
 480   0.0000       2.167545        58.9819 
 481   0.0000       2.174435        59.1694 
 482   0.0000       2.183808        59.4244 
 483   0.0000       2.186993        59.5111 
 484   0.0000       2.195941        59.7546 
 485   0.0000       2.221918        60.4615 
 486   0.0000       2.227791        60.6213 
 487   0.0000       2.234726        60.8100 
 488   0.0000       2.237139        60.8756 
 489   0.0000       2.247829        61.1665 
 490   0.0000       2.264910        61.6313 
 491   0.0000       2.271764        61.8179 
 492   0.0000       2.277231        61.9666 
 493   0.0000       2.288302        62.2679 
 494   0.0000       2.295501        62.4638 
 495   0.0000       2.305293        62.7302 
 496   0.0000       2.307870        62.8003 
 497   0.0000       2.315818        63.0166 
 498   0.0000       2.324309        63.2477 
 499   0.0000       2.343122        63.7596 
 500   0.0000       2.389298        65.0161 
 501   0.0000       2.396967        65.2248 
 502   0.0000       2.401755        65.3551 
 503   0.0000       2.418310        65.8056 
 504   0.0000       2.426716        66.0343 
 505   0.0000       2.428926        66.0944 
 506   0.0000       2.436708        66.3062 
 507   0.0000       2.441432        66.4347 
 508   0.0000       2.446898        66.5835 
 509   0.0000       2.449023        66.6413 
 510   0.0000       2.456220        66.8371 
 511   0.0000       2.459001        66.9128 
 512   0.0000       2.466894        67.1276 
 513   0.0000       2.481966        67.5377 
 514   0.0000       2.500190        68.0336 
 515   0.0000       2.537055        69.0368 
 516   0.0000       2.537998        69.0624 
 517   0.0000       2.539040        69.0908 
 518   0.0000       2.540101        69.1197 
 519   0.0000       2.557843        69.6024 
 520   0.0000       2.561879        69.7123 
 521   0.0000       2.563948        69.7686 
 522   0.0000       2.568344        69.8882 
 523   0.0000       2.597943        70.6936 
 524   0.0000       2.614061        71.1322 
 525   0.0000       2.637972        71.7829 
 526   0.0000       2.658154        72.3320 
 527   0.0000       2.672661        72.7268 
 528   0.0000       2.676129        72.8212 
 529   0.0000       2.681024        72.9544 
 530   0.0000       2.685909        73.0873 
 531   0.0000       2.695337        73.3439 
 532   0.0000       2.704006        73.5797 
 533   0.0000       2.723297        74.1047 
 534   0.0000       2.733720        74.3883 
 535   0.0000       2.737446        74.4897 
 536   0.0000       2.743453        74.6532 
 537   0.0000       2.744027        74.6688 
 538   0.0000       2.750744        74.8515 
 539   0.0000       2.759521        75.0904 
 540   0.0000       2.772410        75.4411 
 541   0.0000       2.795591        76.0719 
 542   0.0000       2.802698        76.2653 
 543   0.0000       2.809304        76.4451 
 544   0.0000       2.824657        76.8628 
 545   0.0000       2.858647        77.7877 
 546   0.0000       2.868512        78.0562 
 547   0.0000       2.890772        78.6619 
 548   0.0000       2.900624        78.9300 
 549   0.0000       2.903321        79.0034 
 550   0.0000       2.912121        79.2428 
 551   0.0000       2.916530        79.3628 
 552   0.0000       2.918583        79.4187 
 553   0.0000       2.921678        79.5029 
 554   0.0000       2.926488        79.6338 
 555   0.0000       2.938775        79.9681 
 556   0.0000       2.981333        81.1262 
 557   0.0000       3.011083        81.9357 
 558   0.0000       3.017647        82.1143 
 559   0.0000       3.029085        82.4256 
 560   0.0000       3.047013        82.9134 
 561   0.0000       3.073350        83.6301 
 562   0.0000       3.133410        85.2644 
 563   0.0000       3.291031        89.5535 
 564   0.0000       3.339984        90.8856 
 565   0.0000       3.348821        91.1261 
 566   0.0000       3.350309        91.1665 
 567   0.0000       3.415096        92.9295 
 568   0.0000       3.437484        93.5387 
 569   0.0000       3.472267        94.4852 
 570   0.0000       3.559898        96.8697 
 571   0.0000       3.717859       101.1681 
 572   0.0000       3.759583       102.3034 

                    ********************************
                    * MULLIKEN POPULATION ANALYSIS *
                    ********************************

-----------------------
MULLIKEN ATOMIC CHARGES
-----------------------
   0 C :   -0.407231
   1 C :   -0.032071
   2 C :   -0.122336
   3 C :   -0.139847
   4 C :   -0.055168
   5 B :   -0.579541
   6 C :   -0.024632
   7 C :   -0.137627
   8 C :   -0.132265
   9 C :   -0.040562
  10 C :   -0.144321
  11 C :   -0.174341
  12 C :   -0.399295
  13 C :   -0.040915
  14 C :   -0.164276
  15 C :   -0.140485
  16 C :   -0.035051
  17 C :   -0.131357
  18 C :   -0.124643
  19 C :   -0.406718
  20 C :   -0.154440
  21 C :   -0.144208
  22 F :   -0.217877
  23 C :    0.903139
  24 C :   -0.028998
  25 C :   -0.150156
  26 C :    0.155625
  27 N :   -0.070872
  28 C :    0.147671
  29 C :   -0.140468
  30 F :   -0.229204
  31 F :   -0.228741
  32 H :    0.176931
  33 H :    0.175620
  34 H :    0.194339
  35 H :    0.115760
  36 H :    0.128831
  37 H :    0.139033
  38 H :    0.116518
  39 H :    0.115681
  40 H :    0.123603
  41 H :    0.167814
  42 H :    0.184594
  43 H :    0.188339
  44 H :    0.119360
  45 H :    0.115520
  46 H :    0.116228
  47 H :    0.136115
  48 H :    0.174976
  49 H :    0.177218
  50 H :    0.193630
  51 H :    0.116312
  52 H :    0.115830
  53 H :    0.120684
  54 H :    0.121430
  55 H :    0.144652
  56 H :    0.112196
Sum of atomic charges:    0.0000000

--------------------------------
MULLIKEN REDUCED ORBITAL CHARGES
--------------------------------
  0 C s       :     3.028956  s :     3.028956
      pz      :     1.083333  p :     3.351524
      px      :     1.152884
      py      :     1.115307
      dz2     :     0.007385  d :     0.026751
      dxz     :     0.002858
      dyz     :     0.005982
      dx2y2   :     0.006111
      dxy     :     0.004416
  1 C s       :     3.021755  s :     3.021755
      pz      :     0.994536  p :     2.960589
      px      :     0.958463
      py      :     1.007590
      dz2     :     0.011627  d :     0.049728
      dxz     :     0.007124
      dyz     :     0.012985
      dx2y2   :     0.009300
      dxy     :     0.008691
  2 C s       :     3.210862  s :     3.210862
      pz      :     0.983527  p :     2.874168
      px      :     0.994788
      py      :     0.895854
      dz2     :     0.009729  d :     0.037307
      dxz     :     0.006696
      dyz     :     0.009808
      dx2y2   :     0.006512
      dxy     :     0.004561
  3 C s       :     3.236705  s :     3.236705
      pz      :     0.946606  p :     2.863525
      px      :     0.954244
      py      :     0.962675
      dz2     :     0.007750  d :     0.039617
      dxz     :     0.004700
      dyz     :     0.012313
      dx2y2   :     0.007092
      dxy     :     0.007762
  4 C s       :     3.083376  s :     3.083376
      pz      :     0.971290  p :     2.932754
      px      :     1.025885
      py      :     0.935579
      dz2     :     0.008799  d :     0.039037
      dxz     :     0.005102
      dyz     :     0.010412
      dx2y2   :     0.007742
      dxy     :     0.006982
  5 B s       :     3.044602  s :     3.044602
      pz      :     0.929075  p :     2.424000
      px      :     0.638298
      py      :     0.856627
      dz2     :     0.024504  d :     0.110939
      dxz     :     0.016298
      dyz     :     0.021949
      dx2y2   :     0.032115
      dxy     :     0.016072
  6 C s       :     3.071017  s :     3.071017
      pz      :     0.954367  p :     2.914452
      px      :     0.944701
      py      :     1.015383
      dz2     :     0.008446  d :     0.039163
      dxz     :     0.010290
      dyz     :     0.004962
      dx2y2   :     0.007978
      dxy     :     0.007487
  7 C s       :     3.228831  s :     3.228831
      pz      :     0.936376  p :     2.868785
      px      :     0.966099
      py      :     0.966309
      dz2     :     0.007819  d :     0.040012
      dxz     :     0.012641
      dyz     :     0.005309
      dx2y2   :     0.006931
      dxy     :     0.007311
  8 C s       :     3.219467  s :     3.219467
      pz      :     0.977505  p :     2.875255
      px      :     0.910516
      py      :     0.987234
      dz2     :     0.009521  d :     0.037542
      dxz     :     0.009871
      dyz     :     0.006712
      dx2y2   :     0.006569
      dxy     :     0.004868
  9 C s       :     3.022741  s :     3.022741
      pz      :     1.000673  p :     2.967971
      px      :     0.998728
      py      :     0.968570
      dz2     :     0.010947  d :     0.049851
      dxz     :     0.013837
      dyz     :     0.007230
      dx2y2   :     0.008667
      dxy     :     0.009169
 10 C s       :     3.212613  s :     3.212613
      pz      :     0.934349  p :     2.894200
      px      :     0.975068
      py      :     0.984782
      dz2     :     0.007583  d :     0.037508
      dxz     :     0.010900
      dyz     :     0.005103
      dx2y2   :     0.007128
      dxy     :     0.006793
 11 C s       :     3.233545  s :     3.233545
      pz      :     0.984224  p :     2.901296
      px      :     0.949110
      py      :     0.967962
      dz2     :     0.010666  d :     0.039500
      dxz     :     0.009413
      dyz     :     0.007310
      dx2y2   :     0.007497
      dxy     :     0.004614
 12 C s       :     3.021841  s :     3.021841
      pz      :     1.069053  p :     3.350691
      px      :     1.141117
      py      :     1.140521
      dz2     :     0.004311  d :     0.026763
      dxz     :     0.007048
      dyz     :     0.006394
      dx2y2   :     0.001646
      dxy     :     0.007364
 13 C s       :     3.078059  s :     3.078059
      pz      :     0.964991  p :     2.923863
      px      :     1.019034
      py      :     0.939839
      dz2     :     0.008473  d :     0.038994
      dxz     :     0.006818
      dyz     :     0.010284
      dx2y2   :     0.006793
      dxy     :     0.006626
 14 C s       :     3.216450  s :     3.216450
      pz      :     0.962954  p :     2.908064
      px      :     0.971106
      py      :     0.974004
      dz2     :     0.007004  d :     0.039762
      dxz     :     0.005235
      dyz     :     0.010966
      dx2y2   :     0.008063
      dxy     :     0.008494
 15 C s       :     3.215128  s :     3.215128
      pz      :     0.965264  p :     2.887975
      px      :     0.970843
      py      :     0.951868
      dz2     :     0.006561  d :     0.037382
      dxz     :     0.005201
      dyz     :     0.010473
      dx2y2   :     0.007246
      dxy     :     0.007901
 16 C s       :     3.022516  s :     3.022516
      pz      :     0.989264  p :     2.962774
      px      :     0.971382
      py      :     1.002128
      dz2     :     0.009382  d :     0.049761
      dxz     :     0.007155
      dyz     :     0.013638
      dx2y2   :     0.009128
      dxy     :     0.010458
 17 C s       :     3.215594  s :     3.215594
      pz      :     0.953654  p :     2.878282
      px      :     0.987867
      py      :     0.936761
      dz2     :     0.006351  d :     0.037481
      dxz     :     0.005246
      dyz     :     0.010218
      dx2y2   :     0.007738
      dxy     :     0.007928
 18 C s       :     3.233957  s :     3.233957
      pz      :     0.952642  p :     2.851139
      px      :     0.978285
      py      :     0.920212
      dz2     :     0.006756  d :     0.039547
      dxz     :     0.005576
      dyz     :     0.010623
      dx2y2   :     0.008108
      dxy     :     0.008484
 19 C s       :     3.028365  s :     3.028365
      pz      :     1.158228  p :     3.351574
      px      :     1.161406
      py      :     1.031940
      dz2     :     0.004328  d :     0.026778
      dxz     :     0.005301
      dyz     :     0.005355
      dx2y2   :     0.005769
      dxy     :     0.006025
 20 C s       :     3.214914  s :     3.214914
      pz      :     0.988010  p :     2.899775
      px      :     0.965483
      py      :     0.946281
      dz2     :     0.010902  d :     0.039751
      dxz     :     0.007403
      dyz     :     0.009707
      dx2y2   :     0.007210
      dxy     :     0.004528
 21 C s       :     3.219010  s :     3.219010
      pz      :     0.923655  p :     2.887899
      px      :     0.984875
      py      :     0.979369
      dz2     :     0.007534  d :     0.037299
      dxz     :     0.004801
      dyz     :     0.010696
      dx2y2   :     0.007335
      dxy     :     0.006934
 22 F s       :     3.883253  s :     3.883253
      pz      :     1.677174  p :     5.329105
      px      :     1.830549
      py      :     1.821382
      dz2     :     0.001371  d :     0.005520
      dxz     :     0.001422
      dyz     :     0.001511
      dx2y2   :     0.000552
      dxy     :     0.000664
 23 C s       :     2.815151  s :     2.815151
      pz      :     0.653346  p :     2.122648
      px      :     0.818412
      py      :     0.650890
      dz2     :     0.035902  d :     0.159062
      dxz     :     0.025208
      dyz     :     0.039391
      dx2y2   :     0.031935
      dxy     :     0.026626
 24 C s       :     3.059478  s :     3.059478
      pz      :     0.921204  p :     2.925971
      px      :     1.092675
      py      :     0.912092
      dz2     :     0.008914  d :     0.043550
      dxz     :     0.009775
      dyz     :     0.006970
      dx2y2   :     0.009515
      dxy     :     0.008376
 25 C s       :     3.214549  s :     3.214549
      pz      :     0.967198  p :     2.900263
      px      :     0.953752
      py      :     0.979313
      dz2     :     0.005879  d :     0.035344
      dxz     :     0.008147
      dyz     :     0.005460
      dx2y2   :     0.008497
      dxy     :     0.007361
 26 C s       :     3.092817  s :     3.092817
      pz      :     0.882210  p :     2.699395
      px      :     0.940719
      py      :     0.876465
      dz2     :     0.008632  d :     0.052164
      dxz     :     0.013716
      dyz     :     0.007955
      dx2y2   :     0.010016
      dxy     :     0.011845
 27 N s       :     3.373180  s :     3.373180
      pz      :     1.190913  p :     3.670187
      px      :     1.244061
      py      :     1.235213
      dz2     :     0.005712  d :     0.027505
      dxz     :     0.006410
      dyz     :     0.004973
      dx2y2   :     0.004849
      dxy     :     0.005560
 28 C s       :     3.118115  s :     3.118115
      pz      :     0.891695  p :     2.682190
      px      :     0.902915
      py      :     0.887580
      dz2     :     0.008236  d :     0.052024
      dxz     :     0.013463
      dyz     :     0.007812
      dx2y2   :     0.010356
      dxy     :     0.012157
 29 C s       :     3.208776  s :     3.208776
      pz      :     0.966037  p :     2.896237
      px      :     0.960513
      py      :     0.969688
      dz2     :     0.006030  d :     0.035455
      dxz     :     0.008397
      dyz     :     0.005567
      dx2y2   :     0.008383
      dxy     :     0.007078
 30 F s       :     3.888763  s :     3.888763
      pz      :     1.650392  p :     5.334981
      px      :     1.880241
      py      :     1.804348
      dz2     :     0.001538  d :     0.005461
      dxz     :     0.001110
      dyz     :     0.001833
      dx2y2   :     0.000502
      dxy     :     0.000478
 31 F s       :     3.888070  s :     3.888070
      pz      :     1.896227  p :     5.335195
      px      :     1.838745
      py      :     1.600223
      dz2     :     0.000781  d :     0.005476
      dxz     :     0.000225
      dyz     :     0.000991
      dx2y2   :     0.001681
      dxy     :     0.001799
 32 H s       :     0.794934  s :     0.794934
      pz      :     0.014705  p :     0.028134
      px      :     0.005491
      py      :     0.007939
 33 H s       :     0.796262  s :     0.796262
      pz      :     0.004893  p :     0.028118
      px      :     0.007940
      py      :     0.015285
 34 H s       :     0.777129  s :     0.777129
      pz      :     0.005246  p :     0.028533
      px      :     0.017401
      py      :     0.005885
 35 H s       :     0.857849  s :     0.857849
      pz      :     0.003401  p :     0.026391
      px      :     0.004494
      py      :     0.018496
 36 H s       :     0.844804  s :     0.844804
      pz      :     0.013095  p :     0.026365
      px      :     0.006348
      py      :     0.006922
 37 H s       :     0.834695  s :     0.834695
      pz      :     0.010855  p :     0.026272
      px      :     0.009587
      py      :     0.005829
 38 H s       :     0.857094  s :     0.857094
      pz      :     0.003655  p :     0.026388
      px      :     0.018156
      py      :     0.004577
 39 H s       :     0.857885  s :     0.857885
      pz      :     0.010588  p :     0.026435
      px      :     0.009478
      py      :     0.006369
 40 H s       :     0.849646  s :     0.849646
      pz      :     0.003781  p :     0.026751
      px      :     0.018430
      py      :     0.004540
 41 H s       :     0.804150  s :     0.804150
      pz      :     0.008810  p :     0.028036
      px      :     0.012121
      py      :     0.007105
 42 H s       :     0.787016  s :     0.787016
      pz      :     0.005191  p :     0.028390
      px      :     0.010275
      py      :     0.012924
 43 H s       :     0.783204  s :     0.783204
      pz      :     0.008878  p :     0.028457
      px      :     0.009069
      py      :     0.010511
 44 H s       :     0.853733  s :     0.853733
      pz      :     0.012483  p :     0.026907
      px      :     0.006539
      py      :     0.007886
 45 H s       :     0.858011  s :     0.858011
      pz      :     0.011425  p :     0.026469
      px      :     0.009173
      py      :     0.005871
 46 H s       :     0.857427  s :     0.857427
      pz      :     0.011994  p :     0.026345
      px      :     0.006613
      py      :     0.007739
 47 H s       :     0.837618  s :     0.837618
      pz      :     0.011347  p :     0.026267
      px      :     0.009142
      py      :     0.005778
 48 H s       :     0.796891  s :     0.796891
      pz      :     0.016000  p :     0.028133
      px      :     0.006036
      py      :     0.006097
 49 H s       :     0.794611  s :     0.794611
      pz      :     0.007545  p :     0.028171
      px      :     0.012949
      py      :     0.007676
 50 H s       :     0.777828  s :     0.777828
      pz      :     0.009957  p :     0.028542
      px      :     0.013845
      py      :     0.004741
 51 H s       :     0.856744  s :     0.856744
      pz      :     0.003608  p :     0.026944
      px      :     0.004570
      py      :     0.018766
 52 H s       :     0.857739  s :     0.857739
      pz      :     0.012696  p :     0.026431
      px      :     0.007120
      py      :     0.006614
 53 H s       :     0.852479  s :     0.852479
      pz      :     0.011390  p :     0.026837
      px      :     0.006548
      py      :     0.008900
 54 H s       :     0.853323  s :     0.853323
      pz      :     0.008974  p :     0.025247
      px      :     0.008080
      py      :     0.008192
 55 H s       :     0.830913  s :     0.830913
      pz      :     0.009486  p :     0.024434
      px      :     0.007361
      py      :     0.007587
 56 H s       :     0.860770  s :     0.860770
      pz      :     0.010563  p :     0.027034
      px      :     0.006918
      py      :     0.009554


                     *******************************
                     * LOEWDIN POPULATION ANALYSIS *
                     *******************************

----------------------
LOEWDIN ATOMIC CHARGES
----------------------
   0 C :   -0.279884
   1 C :   -0.009380
   2 C :   -0.112833
   3 C :   -0.079896
   4 C :   -0.174736
   5 B :   -0.394189
   6 C :   -0.168754
   7 C :   -0.087414
   8 C :   -0.112061
   9 C :   -0.017000
  10 C :   -0.116514
  11 C :   -0.082741
  12 C :   -0.280046
  13 C :   -0.170642
  14 C :   -0.083508
  15 C :   -0.116147
  16 C :   -0.013780
  17 C :   -0.112373
  18 C :   -0.084185
  19 C :   -0.279923
  20 C :   -0.078197
  21 C :   -0.115593
  22 F :   -0.092453
  23 C :    0.445285
[...]
      dxy     :     0.015718
 11 C s       :     2.863820  s :     2.863820
      pz      :     1.041254  p :     3.119760
      px      :     1.094516
      py      :     0.983990
      dz2     :     0.026684  d :     0.099161
      dxz     :     0.026692
      dyz     :     0.018459
      dx2y2   :     0.016439
      dxy     :     0.010887
 12 C s       :     2.863987  s :     2.863987
      pz      :     1.081238  p :     3.353500
      px      :     1.139361
      py      :     1.132901
      dz2     :     0.010183  d :     0.062560
      dxz     :     0.016684
      dyz     :     0.015748
      dx2y2   :     0.003424
      dxy     :     0.016520
 13 C s       :     2.880295  s :     2.880295
      pz      :     1.050692  p :     3.191313
      px      :     1.022286
      py      :     1.118336
      dz2     :     0.020356  d :     0.099034
      dxz     :     0.018266
      dyz     :     0.028433
      dx2y2   :     0.015673
      dxy     :     0.016306
 14 C s       :     2.863816  s :     2.863816
      pz      :     1.050537  p :     3.120034
      px      :     0.997797
      py      :     1.071700
      dz2     :     0.017238  d :     0.099657
      dxz     :     0.012385
      dyz     :     0.028130
      dx2y2   :     0.021072
      dxy     :     0.020833
 15 C s       :     2.869594  s :     2.869594
      pz      :     1.058749  p :     3.152103
      px      :     1.023739
      py      :     1.069615
      dz2     :     0.016256  d :     0.094451
      dxz     :     0.011235
      dyz     :     0.028267
      dx2y2   :     0.019885
      dxy     :     0.018807
 16 C s       :     2.844472  s :     2.844472
      pz      :     1.034563  p :     3.046253
      px      :     0.977522
      py      :     1.034168
      dz2     :     0.023687  d :     0.123056
      dxz     :     0.018952
      dyz     :     0.034385
      dx2y2   :     0.022652
      dxy     :     0.023380
 17 C s       :     2.869693  s :     2.869693
      pz      :     1.055484  p :     3.147914
      px      :     1.018768
      py      :     1.073662
      dz2     :     0.015612  d :     0.094767
      dxz     :     0.012302
      dyz     :     0.026487
      dx2y2   :     0.020483
      dxy     :     0.019883
 18 C s       :     2.863802  s :     2.863802
      pz      :     1.043749  p :     3.121084
      px      :     1.008585
      py      :     1.068750
      dz2     :     0.016802  d :     0.099300
      dxz     :     0.011849
      dyz     :     0.028748
      dx2y2   :     0.021731
      dxy     :     0.020170
 19 C s       :     2.864089  s :     2.864089
      pz      :     1.152375  p :     3.353307
      px      :     1.149191
      py      :     1.051741
      dz2     :     0.011042  d :     0.062527
      dxz     :     0.011644
      dyz     :     0.011032
      dx2y2   :     0.015747
      dxy     :     0.013062
 20 C s       :     2.863763  s :     2.863763
      pz      :     1.042474  p :     3.114810
      px      :     0.977203
      py      :     1.095134
      dz2     :     0.027470  d :     0.099623
      dxz     :     0.018621
      dyz     :     0.027372
      dx2y2   :     0.015670
      dxy     :     0.010491
 21 C s       :     2.869684  s :     2.869684
      pz      :     1.067621  p :     3.151642
      px      :     1.010313
      py      :     1.073707
      dz2     :     0.019089  d :     0.094267
      dxz     :     0.010295
      dyz     :     0.029224
      dx2y2   :     0.019711
      dxy     :     0.015948
 22 F s       :     3.717972  s :     3.717972
      pz      :     1.704371  p :     5.364928
      px      :     1.832507
      py      :     1.828049
      dz2     :     0.002218  d :     0.009554
      dxz     :     0.002632
      dyz     :     0.002824
      dx2y2   :     0.000740
      dxy     :     0.001141
 23 C s       :     2.775985  s :     2.775985
      pz      :     0.752423  p :     2.410904
      px      :     0.907114
      py      :     0.751367
      dz2     :     0.085381  d :     0.367827
      dxz     :     0.052909
      dyz     :     0.091387
      dx2y2   :     0.081029
      dxy     :     0.057121
 24 C s       :     2.873307  s :     2.873307
      pz      :     0.990745  p :     3.045800
      px      :     1.102041
      py      :     0.953015
      dz2     :     0.021005  d :     0.111325
      dxz     :     0.025918
      dyz     :     0.019284
      dx2y2   :     0.024263
      dxy     :     0.020854
 25 C s       :     2.867529  s :     2.867529
      pz      :     1.047745  p :     3.153602
      px      :     1.075682
      py      :     1.030175
      dz2     :     0.014125  d :     0.091845
      dxz     :     0.022309
      dyz     :     0.012523
      dx2y2   :     0.023502
      dxy     :     0.019386
 26 C s       :     2.837579  s :     2.837579
      pz      :     0.935079  p :     2.901386
      px      :     1.052306
      py      :     0.914001
      dz2     :     0.019615  d :     0.127163
      dxz     :     0.035071
      dyz     :     0.017880
      dx2y2   :     0.025612
      dxy     :     0.028984
 27 N s       :     3.070553  s :     3.070553
      pz      :     1.229822  p :     3.748152
      px      :     1.275222
      py      :     1.243109
      dz2     :     0.012582  d :     0.064915
      dxz     :     0.015777
      dyz     :     0.012462
      dx2y2   :     0.011460
      dxy     :     0.012634
 28 C s       :     2.838195  s :     2.838195
      pz      :     0.937608  p :     2.903045
      px      :     1.051798
      py      :     0.913639
      dz2     :     0.018557  d :     0.126818
      dxz     :     0.034157
      dyz     :     0.017445
      dx2y2   :     0.026521
      dxy     :     0.030138
 29 C s       :     2.867787  s :     2.867787
      pz      :     1.045698  p :     3.154523
      px      :     1.078962
      py      :     1.029863
      dz2     :     0.014417  d :     0.091898
      dxz     :     0.023266
      dyz     :     0.012631
      dx2y2   :     0.023139
      dxy     :     0.018445
 30 F s       :     3.723720  s :     3.723720
      pz      :     1.679972  p :     5.368824
      px      :     1.873751
      py      :     1.815100
      dz2     :     0.002624  d :     0.009443
      dxz     :     0.001807
      dyz     :     0.003516
      dx2y2   :     0.000742
      dxy     :     0.000753
 31 F s       :     3.721774  s :     3.721774
      pz      :     1.894359  p :     5.367700
      px      :     1.836974
      py      :     1.636367
      dz2     :     0.001533  d :     0.009460
      dxz     :     0.000298
      dyz     :     0.001381
      dx2y2   :     0.002916
      dxy     :     0.003333
 32 H s       :     0.802869  s :     0.802869
      pz      :     0.046301  p :     0.084167
      px      :     0.014570
      py      :     0.023296
 33 H s       :     0.803602  s :     0.803602
      pz      :     0.013670  p :     0.084147
      px      :     0.022594
      py      :     0.047883
 34 H s       :     0.794304  s :     0.794304
      pz      :     0.014380  p :     0.083929
      px      :     0.054358
      py      :     0.015191
 35 H s       :     0.812424  s :     0.812424
      pz      :     0.010798  p :     0.081271
      px      :     0.013318
      py      :     0.057155
 36 H s       :     0.814264  s :     0.814264
      pz      :     0.040055  p :     0.080886
      px      :     0.019452
      py      :     0.021380
 37 H s       :     0.812355  s :     0.812355
      pz      :     0.033078  p :     0.080915
      px      :     0.030138
      py      :     0.017700
 38 H s       :     0.811893  s :     0.811893
      pz      :     0.011500  p :     0.081218
      px      :     0.056231
      py      :     0.013487
 39 H s       :     0.812808  s :     0.812808
      pz      :     0.032457  p :     0.081399
      px      :     0.029848
      py      :     0.019095
 40 H s       :     0.817822  s :     0.817822
      pz      :     0.011538  p :     0.081444
      px      :     0.056729
      py      :     0.013177
 41 H s       :     0.806500  s :     0.806500
      pz      :     0.027494  p :     0.084149
      px      :     0.036483
      py      :     0.020172
 42 H s       :     0.798304  s :     0.798304
      pz      :     0.015202  p :     0.084051
      px      :     0.030355
      py      :     0.038494
 43 H s       :     0.796550  s :     0.796550
      pz      :     0.026480  p :     0.083980
      px      :     0.025950
      py      :     0.031551
 44 H s       :     0.818460  s :     0.818460
      pz      :     0.038245  p :     0.082222
      px      :     0.019625
      py      :     0.024351
 45 H s       :     0.812795  s :     0.812795
      pz      :     0.035376  p :     0.081371
      px      :     0.027927
      py      :     0.018068
 46 H s       :     0.812129  s :     0.812129
      pz      :     0.037069  p :     0.081243
      px      :     0.020178
      py      :     0.023996
 47 H s       :     0.813950  s :     0.813950
      pz      :     0.035096  p :     0.080533
      px      :     0.027960
      py      :     0.017477
 48 H s       :     0.803848  s :     0.803848
      pz      :     0.049076  p :     0.084180
      px      :     0.016208
      py      :     0.018896
 49 H s       :     0.802754  s :     0.802754
      pz      :     0.021174  p :     0.084156
      px      :     0.038855
      py      :     0.024126
 50 H s       :     0.794730  s :     0.794730
      pz      :     0.028316  p :     0.083915
      px      :     0.041702
      py      :     0.013897
 51 H s       :     0.818954  s :     0.818954
      pz      :     0.011188  p :     0.082252
      px      :     0.013288
      py      :     0.057776
 52 H s       :     0.812623  s :     0.812623
      pz      :     0.038888  p :     0.081324
      px      :     0.021484
      py      :     0.020953
 53 H s       :     0.811690  s :     0.811690
      pz      :     0.035090  p :     0.082154
      px      :     0.019949
      py      :     0.027115
 54 H s       :     0.828172  s :     0.828172
      pz      :     0.028065  p :     0.079452
      px      :     0.025960
      py      :     0.025427
 55 H s       :     0.823856  s :     0.823856
      pz      :     0.029952  p :     0.077685
      px      :     0.023742
      py      :     0.023990
 56 H s       :     0.813992  s :     0.813992
      pz      :     0.032530  p :     0.082997
      px      :     0.021187
      py      :     0.029279


                      *****************************
                      * MAYER POPULATION ANALYSIS *
                      *****************************

  NA   - Mulliken gross atomic population
  ZA   - Total nuclear charge
  QA   - Mulliken gross atomic charge
  VA   - Mayer's total valence
  BVA  - Mayer's bonded valence
  FA   - Mayer's free valence

  ATOM       NA         ZA         QA         VA         BVA        FA
  0 C      6.4072     6.0000    -0.4072     3.8639     3.8639     0.0000
  1 C      6.0321     6.0000    -0.0321     4.0890     4.0890    -0.0000
  2 C      6.1223     6.0000    -0.1223     3.8422     3.8422     0.0000
  3 C      6.1398     6.0000    -0.1398     3.9003     3.9003     0.0000
  4 C      6.0552     6.0000    -0.0552     3.7811     3.7811    -0.0000
  5 B      5.5795     5.0000    -0.5795     4.3385     4.3385    -0.0000
  6 C      6.0246     6.0000    -0.0246     3.7602     3.7602    -0.0000
  7 C      6.1376     6.0000    -0.1376     3.9137     3.9137    -0.0000
  8 C      6.1323     6.0000    -0.1323     3.8451     3.8451     0.0000
  9 C      6.0406     6.0000    -0.0406     4.0933     4.0933     0.0000
 10 C      6.1443     6.0000    -0.1443     3.8966     3.8966     0.0000
 11 C      6.1743     6.0000    -0.1743     3.9210     3.9210     0.0000
 12 C      6.3993     6.0000    -0.3993     3.8646     3.8646     0.0000
 13 C      6.0409     6.0000    -0.0409     3.7657     3.7657     0.0000
 14 C      6.1643     6.0000    -0.1643     3.9441     3.9441    -0.0000
 15 C      6.1405     6.0000    -0.1405     3.8876     3.8876     0.0000
 16 C      6.0351     6.0000    -0.0351     4.0870     4.0870    -0.0000
 17 C      6.1314     6.0000    -0.1314     3.8416     3.8416     0.0000
 18 C      6.1246     6.0000    -0.1246     3.8942     3.8942    -0.0000
 19 C      6.4067     6.0000    -0.4067     3.8641     3.8641     0.0000
 20 C      6.1544     6.0000    -0.1544     3.9343     3.9343     0.0000
 21 C      6.1442     6.0000    -0.1442     3.8909     3.8909    -0.0000
 22 F      9.2179     9.0000    -0.2179     1.1627     1.1627     0.0000
 23 C      5.0969     6.0000     0.9031     4.2208     4.2208    -0.0000
 24 C      6.0290     6.0000    -0.0290     3.8390     3.8390    -0.0000
 25 C      6.1502     6.0000    -0.1502     3.9373     3.9373     0.0000
 26 C      5.8444     6.0000     0.1556     3.9655     3.9655    -0.0000
 27 N      7.0709     7.0000    -0.0709     3.5787     3.5787    -0.0000
 28 C      5.8523     6.0000     0.1477     3.9865     3.9865     0.0000
 29 C      6.1405     6.0000    -0.1405     3.8935     3.8935    -0.0000
 30 F      9.2292     9.0000    -0.2292     1.1396     1.1396     0.0000
 31 F      9.2287     9.0000    -0.2287     1.1401     1.1401     0.0000
 32 H      0.8231     1.0000     0.1769     0.9777     0.9777     0.0000
 33 H      0.8244     1.0000     0.1756     0.9785     0.9785    -0.0000
 34 H      0.8057     1.0000     0.1943     0.9696     0.9696    -0.0000
 35 H      0.8842     1.0000     0.1158     0.9825     0.9825     0.0000
 36 H      0.8712     1.0000     0.1288     0.9737     0.9737    -0.0000
 37 H      0.8610     1.0000     0.1390     0.9715     0.9715    -0.0000
 38 H      0.8835     1.0000     0.1165     0.9823     0.9823     0.0000
 39 H      0.8843     1.0000     0.1157     0.9823     0.9823    -0.0000
 40 H      0.8764     1.0000     0.1236     0.9778     0.9778     0.0000
 41 H      0.8322     1.0000     0.1678     0.9836     0.9836    -0.0000
 42 H      0.8154     1.0000     0.1846     0.9730     0.9730     0.0000
 43 H      0.8117     1.0000     0.1883     0.9717     0.9717     0.0000
 44 H      0.8806     1.0000     0.1194     0.9782     0.9782    -0.0000
 45 H      0.8845     1.0000     0.1155     0.9826     0.9826     0.0000
 46 H      0.8838     1.0000     0.1162     0.9823     0.9823     0.0000
 47 H      0.8639     1.0000     0.1361     0.9733     0.9733    -0.0000
 48 H      0.8250     1.0000     0.1750     0.9791     0.9791     0.0000
 49 H      0.8228     1.0000     0.1772     0.9775     0.9775     0.0000
 50 H      0.8064     1.0000     0.1936     0.9698     0.9698     0.0000
 51 H      0.8837     1.0000     0.1163     0.9806     0.9806     0.0000
 52 H      0.8842     1.0000     0.1158     0.9824     0.9824    -0.0000
 53 H      0.8793     1.0000     0.1207     0.9884     0.9884    -0.0000
 54 H      0.8786     1.0000     0.1214     0.9792     0.9792    -0.0000
 55 H      0.8553     1.0000     0.1447     0.9710     0.9710     0.0000
 56 H      0.8878     1.0000     0.1122     0.9957     0.9957    -0.0000

  Mayer bond orders larger than 0.100000
B(  0-C ,  1-C ) :   1.0887 B(  0-C , 32-H ) :   0.9255 B(  0-C , 33-H ) :   0.9263 
B(  0-C , 34-H ) :   0.9160 B(  1-C ,  2-C ) :   1.3784 B(  1-C , 21-C ) :   1.3927 
B(  2-C ,  3-C ) :   1.3801 B(  2-C , 35-H ) :   0.9692 B(  3-C ,  4-C ) :   1.3389 
B(  3-C , 36-H ) :   0.9575 B(  4-C ,  5-B ) :   0.9756 B(  4-C , 20-C ) :   1.3516 
B(  5-B ,  6-C ) :   0.9922 B(  5-B , 13-C ) :   1.0000 B(  5-B , 27-N ) :   0.7856 
B(  6-C ,  7-C ) :   1.3459 B(  6-C , 11-C ) :   1.3338 B(  7-C ,  8-C ) :   1.3891 
B(  7-C , 37-H ) :   0.9482 B(  8-C ,  9-C ) :   1.3737 B(  8-C , 38-H ) :   0.9704 
B(  9-C , 10-C ) :   1.4028 B(  9-C , 12-C ) :   1.0881 B( 10-C , 11-C ) :   1.3857 
B( 10-C , 39-H ) :   0.9657 B( 11-C , 40-H ) :   0.9623 B( 12-C , 41-H ) :   0.9291 
B( 12-C , 42-H ) :   0.9207 B( 12-C , 43-H ) :   0.9184 B( 13-C , 14-C ) :   1.3541 
B( 13-C , 18-C ) :   1.3209 B( 14-C , 15-C ) :   1.3906 B( 14-C , 44-H ) :   0.9611 
B( 15-C , 16-C ) :   1.3941 B( 15-C , 45-H ) :   0.9681 B( 16-C , 17-C ) :   1.3772 
B( 16-C , 19-C ) :   1.0874 B( 17-C , 18-C ) :   1.3816 B( 17-C , 46-H ) :   0.9686 
B( 18-C , 47-H ) :   0.9495 B( 19-C , 48-H ) :   0.9265 B( 19-C , 49-H ) :   0.9256 
B( 19-C , 50-H ) :   0.9161 B( 20-C , 21-C ) :   1.3930 B( 20-C , 51-H ) :   0.9632 
B( 21-C , 52-H ) :   0.9688 B( 22-F , 23-C ) :   1.1053 B( 23-C , 24-C ) :   0.8844 
B( 23-C , 30-F ) :   1.1007 B( 23-C , 31-F ) :   1.0903 B( 24-C , 25-C ) :   1.4014 
B( 24-C , 29-C ) :   1.4012 B( 25-C , 26-C ) :   1.4191 B( 25-C , 53-H ) :   0.9523 
B( 26-C , 27-N ) :   1.3492 B( 26-C , 54-H ) :   0.9305 B( 27-N , 28-C ) :   1.3448 
B( 28-C , 29-C ) :   1.4136 B( 28-C , 55-H ) :   0.9141 B( 29-C , 56-H ) :   0.9502 


-------
TIMINGS
-------

Total SCF time: 0 days 0 hours 0 min 6 sec 

Total time                  ....       6.062 sec
Sum of individual times     ....       5.696 sec  ( 94.0%)

Fock matrix formation       ....       0.000 sec  (  0.0%)
Diagonalization             ....       0.000 sec  (  0.0%)
Density matrix formation    ....       0.000 sec  (  0.0%)
Population analysis         ....       0.036 sec  (  0.6%)
Initial guess               ....       3.505 sec  ( 57.8%)
Orbital Transformation      ....       0.000 sec  (  0.0%)
Orbital Orthonormalization  ....       0.000 sec  (  0.0%)
DIIS solution               ....       0.000 sec  (  0.0%)
SOSCF solution              ....       0.000 sec  (  0.0%)

Maximum memory used throughout the entire SCF-calculation: 137.2 MB

-------------------------   --------------------
FINAL SINGLE POINT ENERGY         0.000000000000
-------------------------   --------------------


                            ***************************************
                            *     ORCA property calculations      *
                            ***************************************

                                    ---------------------
                                    Active property flags
                                    ---------------------
   (+) Dipole Moment


------------------------------------------------------------------------------
                       ORCA ELECTRIC PROPERTIES CALCULATION
------------------------------------------------------------------------------

Dipole Moment Calculation                       ... on
Quadrupole Moment Calculation                   ... off
Polarizability Calculation                      ... off
GBWName                                         ... START_a002_b006.gbw
Electron density                                ... START_a002_b006.scfp
The origin for moment calculation is the CENTER OF MASS  = (-0.009786,  0.084529 -0.032955)

-------------
DIPOLE MOMENT
-------------
                                X             Y             Z
Electronic contribution:     52.99662       0.93282      -3.00622
Nuclear contribution   :    -50.65595      -1.00598       2.80609
                        -----------------------------------------
Total Dipole Moment    :      2.34067      -0.07316      -0.20012
                        -----------------------------------------
Magnitude (a.u.)       :      2.35035
Magnitude (Debye)      :      5.97410



--------------------
Rotational spectrum 
--------------------
 
Rotational constants in cm-1:     0.004289     0.003006     0.002929 
Rotational constants in MHz :   128.589057    90.105045    87.796929 

 Dipole components along the rotational axes: 
x,y,z [a.u.] :     2.312896     0.417324     0.021839 
x,y,z [Debye]:     5.878914     1.060753     0.055510 

 

Timings for individual modules:

Sum of individual times         ...        6.877 sec (=   0.115 min)
GTO integral calculation        ...        0.788 sec (=   0.013 min)  11.5 %
SCF iterations                  ...        6.088 sec (=   0.101 min)  88.5 %
                             ****ORCA TERMINATED NORMALLY****
TOTAL RUN TIME: 0 days 0 hours 0 minutes 7 seconds 135 msec
