
                                 *****************
                                 * O   R   C   A *
                                 *****************

                                            #,                                       
                                            ###                                      
                                            ####                                     
                                            #####                                    
                                            ######                                   
                                           ########,                                 
                                     ,,################,,,,,                         
                               ,,#################################,,                 
                          ,,##########################################,,             
                       ,#########################################, ''#####,          
                    ,#############################################,,   '####,        
                  ,##################################################,,,,####,       
                ,###########''''           ''''###############################       
              ,#####''   ,,,,##########,,,,          '''####'''          '####       
            ,##' ,,,,###########################,,,                        '##       
           ' ,,###''''                  '''############,,,                           
         ,,##''                                '''############,,,,        ,,,,,,###''
      ,#''                                            '''#######################'''  
     '                                                          ''''####''''         
             ,#######,   #######,   ,#######,      ##                                
            ,#'     '#,  ##    ##  ,#'     '#,    #''#        ######   ,####,        
            ##       ##  ##   ,#'  ##            #'  '#       #        #'  '#        
            ##       ##  #######   ##           ,######,      #####,   #    #        
            '#,     ,#'  ##    ##  '#,     ,#' ,#      #,         ##   #,  ,#        
             '#######'   ##     ##  '#######'  #'      '#     #####' # '####'        



                  #######################################################
                  #                        -***-                        #
                  #          Department of theory and spectroscopy      #
                  #    Directorship and core code : Frank Neese         #
                  #        Max Planck Institute fuer Kohlenforschung    #
                  #                Kaiser Wilhelm Platz 1               #
                  #                 D-45470 Muelheim/Ruhr               #
                  #                      Germany                        #
                  #                                                     #
                  #                  All rights reserved                #
                  #                        -***-                        #
                  #######################################################


                         Program Version 5.0.2 -  RELEASE  -


 With contributions from (in alphabetic order):
   Daniel Aravena         : Magnetic Suceptibility
   Michael Atanasov       : Ab Initio Ligand Field Theory (pilot matlab implementation)
   Alexander A. Auer      : GIAO ZORA, VPT2 properties, NMR spectrum
   Ute Becker             : Parallelization
   Giovanni Bistoni       : ED, misc. LED, open-shell LED, HFLD
   Martin Brehm           : Molecular dynamics
   Dmytro Bykov           : SCF Hessian
   Vijay G. Chilkuri      : MRCI spin determinant printing, contributions to CSF-ICE
   Dipayan Datta          : RHF DLPNO-CCSD density
   Achintya Kumar Dutta   : EOM-CC, STEOM-CC
   Dmitry Ganyushin       : Spin-Orbit,Spin-Spin,Magnetic field MRCI
   Miquel Garcia          : C-PCM and meta-GGA Hessian, CC/C-PCM, Gaussian charge scheme
   Yang Guo               : DLPNO-NEVPT2, F12-NEVPT2, CIM, IAO-localization
   Andreas Hansen         : Spin unrestricted coupled pair/coupled cluster methods
   Benjamin Helmich-Paris : MC-RPA, TRAH-SCF, COSX integrals
   Lee Huntington         : MR-EOM, pCC
   Robert Izsak           : Overlap fitted RIJCOSX, COSX-SCS-MP3, EOM
   Marcus Kettner         : VPT2
   Christian Kollmar      : KDIIS, OOCD, Brueckner-CCSD(T), CCSD density, CASPT2, CASPT2-K
   Simone Kossmann        : Meta GGA functionals, TD-DFT gradient, OOMP2, MP2 Hessian
   Martin Krupicka        : Initial AUTO-CI
   Lucas Lang             : DCDCAS
   Marvin Lechner         : AUTO-CI (C++ implementation), FIC-MRCC
   Dagmar Lenk            : GEPOL surface, SMD
   Dimitrios Liakos       : Extrapolation schemes; Compound Job, initial MDCI parallelization
   Dimitrios Manganas     : Further ROCIS development; embedding schemes
   Dimitrios Pantazis     : SARC Basis sets
   Anastasios Papadopoulos: AUTO-CI, single reference methods and gradients
   Taras Petrenko         : DFT Hessian,TD-DFT gradient, ASA, ECA, R-Raman, ABS, FL, XAS/XES, NRVS
   Peter Pinski           : DLPNO-MP2, DLPNO-MP2 Gradient
   Christoph Reimann      : Effective Core Potentials
   Marius Retegan         : Local ZFS, SOC
   Christoph Riplinger    : Optimizer, TS searches, QM/MM, DLPNO-CCSD(T), (RO)-DLPNO pert. Triples
   Tobias Risthaus        : Range-separated hybrids, TD-DFT gradient, RPA, STAB
   Michael Roemelt        : Original ROCIS implementation
   Masaaki Saitow         : Open-shell DLPNO-CCSD energy and density
   Barbara Sandhoefer     : DKH picture change effects
   Avijit Sen             : IP-ROCIS
   Kantharuban Sivalingam : CASSCF convergence, NEVPT2, FIC-MRCI
   Bernardo de Souza      : ESD, SOC TD-DFT
   Georgi Stoychev        : AutoAux, RI-MP2 NMR, DLPNO-MP2 response
   Willem Van den Heuvel  : Paramagnetic NMR
   Boris Wezisla          : Elementary symmetry handling
   Frank Wennmohs         : Technical directorship


 We gratefully acknowledge several colleagues who have allowed us to
 interface, adapt or use parts of their codes:
   Stefan Grimme, W. Hujo, H. Kruse, P. Pracht,  : VdW corrections, initial TS optimization,
                  C. Bannwarth, S. Ehlert          DFT functionals, gCP, sTDA/sTD-DF
   Ed Valeev, F. Pavosevic, A. Kumar             : LibInt (2-el integral package), F12 methods
   Garnet Chan, S. Sharma, J. Yang, R. Olivares  : DMRG
   Ulf Ekstrom                                   : XCFun DFT Library
   Mihaly Kallay                                 : mrcc  (arbitrary order and MRCC methods)
   Jiri Pittner, Ondrej Demel                    : Mk-CCSD
   Frank Weinhold                                : gennbo (NPA and NBO analysis)
   Christopher J. Cramer and Donald G. Truhlar   : smd solvation model
   Lars Goerigk                                  : TD-DFT with DH, B97 family of functionals
   V. Asgeirsson, H. Jonsson                     : NEB implementation
   FAccTs GmbH                                   : IRC, NEB, NEB-TS, DLPNO-Multilevel, CI-OPT
                                                   MM, QMMM, 2- and 3-layer-ONIOM, Crystal-QMMM,
                                                   LR-CPCM, SF, NACMEs, symmetry and pop. for TD-DFT,
                                                   nearIR, NL-DFT gradient (VV10), updates on ESD,
                                                   ML-optimized integration grids
   S Lehtola, MJT Oliveira, MAL Marques          : LibXC Library
   Liviu Ungur et al                             : ANISO software


 Your calculation uses the libint2 library for the computation of 2-el integrals
 For citations please refer to: http://libint.valeyev.net

 Your ORCA version has been built with support for libXC version: 5.1.0
 For citations please refer to: https://tddft.org/programs/libxc/

 This ORCA versions uses:
   CBLAS   interface :  Fast vector & matrix operations
   LAPACKE interface :  Fast linear algebra routines
   SCALAPACK package :  Parallel linear algebra routines
   Shared memory     :  Shared parallel matrices
   BLAS/LAPACK       :  OpenBLAS 0.3.15  USE64BITINT DYNAMIC_ARCH NO_AFFINITY SkylakeX SINGLE_THREADED
        Core in use  :  SkylakeX
   Copyright (c) 2011-2014, The OpenBLAS Project


================================================================================

cite the ECPs for Sn [Def2-ECP] as follows:
Ce-Yb(ecp-28): M. Dolg, H. Stoll, H.Preuss, J. Chem. Phys., 1989, 90, 1730-1734.
Y-Cd(ecp-28), Hf-Hg(ecp-46): D. Andrae,U. Haeussermann, M. Dolg, H. Stoll, H. Preuss, Theor. Chim. Acta, 1990, 77, 123-141.
In-Sb(ecp-28), Tl-Bi(ecp-46): B. Metz, H. Stoll, M. Dolg, J. Chem. Phys., 2000, 113, 2563-2569.
Te-Xe(ecp-28), Po-Rn(ecp-46): K. A. Peterson, D. Figgen, E. Goll, H. Stoll, M. Dolg, J. Chem. Phys., 2003, 119, 11113-11123.
Rb(ecp-28), Cs(ecp-46): T. Leininger, A. Nicklass, W. Kuechle, H. Stoll, M. Dolg, A. Bergner, Chem. Phys. Lett., 1996, 255, 274-280.
Sr(ecp-28), Ba(ecp-46): M. Kaupp, P. V. Schleyer, H. Stoll and H. Preuss, J. Chem. Phys., 1991, 94, 1360-1366.
La(ecp-46): M. Dolg, H. Stoll, A. Savin, H. Preuss, Theor. Chim. Acta, 1989, 75, 173-194.
Lu(ecp-28): X. Cao, M. Dolg, J. Chem. Phys., 2001, 115, 7348-7355.

ECP parameters for Sn [Def2-ECP] have been obtained from:
TURBOMOLE (7.0.2)

----- Orbital basis set information -----
Your calculation utilizes the basis: def2-SVP
   F. Weigend and R. Ahlrichs, Phys. Chem. Chem. Phys. 7, 3297 (2005).

================================================================================
                                        WARNINGS
                       Please study these warnings very carefully!
================================================================================


INFO   : the flag for use of the SHARK integral package has been found!

================================================================================
                                       INPUT FILE
================================================================================
NAME = START_a007_b069.inp
|  1> !HF  DEF2-SVP 
|  2> %maxcore 20
|  3> %pal nprocs = 1  end
|  4> %scf
|  5> MAXITER 0
|  6> end
|  7> %output XYZFILE 1 end
|  8> * xyz 0 1
|  9> Cl 3.060463 0.206681 0.007419
| 10> Sn 0.801557 0.921005 -0.037779
| 11> Cl 1.260736 3.207886 -0.185827
| 12> Cl 0.249936 -0.137065 1.981985
| 13> Cl 0.286925 -0.238531 -2.025378
| 14> S -1.697272 1.791666 -0.091688
| 15> C -2.572511 0.364139 -0.042359
| 16> N -3.875616 0.317367 -0.099733
| 17> C -4.661333 1.535143 -0.193498
| 18> C -4.590879 -0.949286 -0.07303
| 19> S -1.717615 -3.21919 0.723553
| 20> C -0.437972 -3.178395 -0.324115
| 21> N 0.847469 -3.269068 -0.036748
| 22> C 1.855885 -3.274529 -1.076059
| 23> C 1.349815 -3.403963 1.313055
| 24> H -2.076361 -0.600953 0.049662
| 25> H -5.716304 1.277602 -0.21803
| 26> H -4.406042 2.087678 -1.097891
| 27> H -4.470306 2.179645 0.664691
| 28> H -5.202724 -1.043518 -0.969903
| 29> H -5.239089 -0.992602 0.801903
| 30> H -3.885827 -1.777886 -0.033033
| 31> H -0.61799 -3.068387 -1.391115
| 32> H 2.56263 -2.460257 -0.91879
| 33> H 1.395125 -3.143275 -2.051172
| 34> H 2.399511 -4.220943 -1.067128
| 35> H 1.784705 -4.395514 1.452002
| 36> H 0.540859 -3.265049 2.022775
| 37> H 2.11792 -2.651677 1.490086
| 38> *
| 39> 
| 40>                          ****END OF INPUT****
================================================================================

                       ****************************
                       * Single Point Calculation *
                       ****************************

---------------------------------
CARTESIAN COORDINATES (ANGSTROEM)
---------------------------------
  Cl     3.060463    0.206681    0.007419
  Sn     0.801557    0.921005   -0.037779
  Cl     1.260736    3.207886   -0.185827
  Cl     0.249936   -0.137065    1.981985
  Cl     0.286925   -0.238531   -2.025378
  S     -1.697272    1.791666   -0.091688
  C     -2.572511    0.364139   -0.042359
  N     -3.875616    0.317367   -0.099733
  C     -4.661333    1.535143   -0.193498
  C     -4.590879   -0.949286   -0.073030
  S     -1.717615   -3.219190    0.723553
  C     -0.437972   -3.178395   -0.324115
  N      0.847469   -3.269068   -0.036748
  C      1.855885   -3.274529   -1.076059
  C      1.349815   -3.403963    1.313055
  H     -2.076361   -0.600953    0.049662
  H     -5.716304    1.277602   -0.218030
  H     -4.406042    2.087678   -1.097891
  H     -4.470306    2.179645    0.664691
  H     -5.202724   -1.043518   -0.969903
  H     -5.239089   -0.992602    0.801903
  H     -3.885827   -1.777886   -0.033033
  H     -0.617990   -3.068387   -1.391115
  H      2.562630   -2.460257   -0.918790
  H      1.395125   -3.143275   -2.051172
  H      2.399511   -4.220943   -1.067128
  H      1.784705   -4.395514    1.452002
  H      0.540859   -3.265049    2.022775
  H      2.117920   -2.651677    1.490086

----------------------------
CARTESIAN COORDINATES (A.U.)
----------------------------
  NO LB      ZA    FRAG     MASS         X           Y           Z
   0 Cl   17.0000    0    35.453    5.783437    0.390570    0.014020
   1 Sn   22.0000*   0   118.690    1.514723    1.740447   -0.071392
   2 Cl   17.0000    0    35.453    2.382446    6.062026   -0.351162
   3 Cl   17.0000    0    35.453    0.472311   -0.259015    3.745409
   4 Cl   17.0000    0    35.453    0.542210   -0.450758   -3.827410
   5 S    16.0000    0    32.060   -3.207379    3.385758   -0.173265
   6 C     6.0000    0    12.011   -4.861341    0.688123   -0.080047
   7 N     7.0000    0    14.007   -7.323853    0.599737   -0.188468
   8 C     6.0000    0    12.011   -8.808643    2.901000   -0.365658
   9 C     6.0000    0    12.011   -8.675504   -1.793891   -0.138007
  10 S    16.0000    0    32.060   -3.245822   -6.083387    1.367317
  11 C     6.0000    0    12.011   -0.827647   -6.006296   -0.612489
  12 N     7.0000    0    14.007    1.601484   -6.177643   -0.069444
  13 C     6.0000    0    12.011    3.507114   -6.187963   -2.033457
  14 C     6.0000    0    12.011    2.550781   -6.432558    2.481314
  15 H     1.0000    0     1.008   -3.923754   -1.135637    0.093848
  16 H     1.0000    0     1.008  -10.802249    2.414318   -0.412017
  17 H     1.0000    0     1.008   -8.326213    3.945140   -2.074713
  18 H     1.0000    0     1.008   -8.447654    4.118932    1.256084
  19 H     1.0000    0     1.008   -9.831724   -1.971963   -1.832851
  20 H     1.0000    0     1.008   -9.900443   -1.875746    1.515377
  21 H     1.0000    0     1.008   -7.343149   -3.359718   -0.062423
  22 H     1.0000    0     1.008   -1.167832   -5.798411   -2.628826
  23 H     1.0000    0     1.008    4.842669   -4.649212   -1.736261
  24 H     1.0000    0     1.008    2.636404   -5.939929   -3.876153
  25 H     1.0000    0     1.008    4.534419   -7.976426   -2.016580
  26 H     1.0000    0     1.008    3.372604   -8.306318    2.743886
  27 H     1.0000    0     1.008    1.022075   -6.170048    3.822491
  28 H     1.0000    0     1.008    4.002289   -5.010943    2.815854
* core charge reduced due to ECP

--------------------------------
INTERNAL COORDINATES (ANGSTROEM)
--------------------------------
 Cl     0   0   0     0.000000000000     0.00000000     0.00000000
 Sn     1   0   0     2.369590250026     0.00000000     0.00000000
 Cl     2   1   0     2.337218062678    96.25095106     0.00000000
 Cl     2   1   3     2.345899500882    94.11575308   236.31794513
 Cl     2   1   3     2.357948179142    94.35267838   118.89274013
 S      2   1   3     2.646715535989   178.33721162   359.03821424
 C      6   2   3     1.675204463070   102.26018317   178.47603154
 N      7   6   2     1.305205745040   123.42661220   182.57499206
 C      8   7   6     1.452281469100   120.85994674   359.11817441
 C      8   7   6     1.454896570821   121.41445653   179.08416963
 S     10   8   7     3.747353020307    98.87691487     8.66183730
 C     11  10   8     1.654315168793   116.32953393   302.96340778
 N     12  11  10     1.320287828505   127.84804863   142.60163290
 C     13  12  11     1.448136736050   121.46822633   177.29648706
 C     13  12  11     1.446553249469   123.20299655   358.95805083
 H      7   6   2     1.089052457600   121.30666049     3.08558131
 H      9   8   7     1.086228795672   109.15351789   180.63991290
 H      9   8   7     1.090135367445   110.60185342    60.47416205
 H      9   8   7     1.090120407319   110.49470339   300.68457390
 H     10   8   7     1.089777569955   109.64515930   238.11259070
 H     10   8   7     1.089752372994   109.98481935   118.43196360
 H     10   8   7     1.088703836088   110.17624038   358.26035949
 H     12  11  10     1.087656765891   119.71827809   322.38555142
 H     14  13  12     1.089615034482   110.19786448   122.60690675
 H     14  13  12     1.086449608995   110.38729975     3.00036014
 H     14  13  12     1.091470773788   110.13471693   242.75893976
 H     15  13  12     1.091608430945   109.98833727   111.70261114
 H     15  13  12     1.085084967978   109.84552575   351.39414776
 H     15  13  12     1.089614377558   109.39168976   231.39560522

---------------------------
INTERNAL COORDINATES (A.U.)
---------------------------
 Cl     0   0   0     0.000000000000     0.00000000     0.00000000
 Sn     1   0   0     4.477876622158     0.00000000     0.00000000
 Cl     2   1   0     4.416702053714    96.25095106     0.00000000
 Cl     2   1   3     4.433107594369    94.11575308   236.31794513
 Cl     2   1   3     4.455876296557    94.35267838   118.89274013
 S      2   1   3     5.001567517413   178.33721162   359.03821424
 C      6   2   3     3.165677653526   102.26018317   178.47603154
 N      7   6   2     2.466481406546   123.42661220   182.57499206
 C      8   7   6     2.744414245967   120.85994674   359.11817441
 C      8   7   6     2.749356072033   121.41445653   179.08416963
 S     10   8   7     7.081470935502    98.87691487     8.66183730
 C     11  10   8     3.126202608210   116.32953393   302.96340778
 N     12  11  10     2.494982413824   127.84804863   142.60163290
 C     13  12  11     2.736581835605   121.46822633   177.29648706
 C     13  12  11     2.733589479631   123.20299655   358.95805083
 H      7   6   2     2.058010890338   121.30666049     3.08558131
 H      9   8   7     2.052674942598   109.15351789   180.63991290
 H      9   8   7     2.060057293373   110.60185342    60.47416205
 H      9   8   7     2.060029022832   110.49470339   300.68457390
 H     10   8   7     2.059381154106   109.64515930   238.11259070
 H     10   8   7     2.059333538749   109.98481935   118.43196360
 H     10   8   7     2.057352091156   110.17624038   358.26035949
 H     12  11  10     2.055373415240   119.71827809   322.38555142
 H     14  13  12     2.059074006575   110.19786448   122.60690675
 H     14  13  12     2.053092219306   110.38729975     3.00036014
 H     14  13  12     2.062580845638   110.13471693   242.75893976
 H     15  13  12     2.062840979965   109.98833727   111.70261114
 H     15  13  12     2.050513421513   109.84552575   351.39414776
 H     15  13  12     2.059072765168   109.39168976   231.39560522

---------------------
BASIS SET INFORMATION
---------------------
There are 6 groups of distinct atoms

 Group   1 Type Cl  : 10s7p1d contracted to 4s3p1d pattern {5311/511/1}
 Group   2 Type Sn  : 10s7p6d contracted to 4s4p2d pattern {6211/4111/51}
 Group   3 Type S   : 10s7p1d contracted to 4s3p1d pattern {5311/511/1}
 Group   4 Type C   : 7s4p1d contracted to 3s2p1d pattern {511/31/1}
 Group   5 Type N   : 7s4p1d contracted to 3s2p1d pattern {511/31/1}
 Group   6 Type H   : 4s1p contracted to 2s1p pattern {31/1}

Atom   0Cl   basis set group =>   1
Atom   1Sn   basis set group =>   2
Atom   2Cl   basis set group =>   1
Atom   3Cl   basis set group =>   1
Atom   4Cl   basis set group =>   1
Atom   5S    basis set group =>   3
Atom   6C    basis set group =>   4
Atom   7N    basis set group =>   5
Atom   8C    basis set group =>   4
Atom   9C    basis set group =>   4
Atom  10S    basis set group =>   3
Atom  11C    basis set group =>   4
Atom  12N    basis set group =>   5
Atom  13C    basis set group =>   4
Atom  14C    basis set group =>   4
Atom  15H    basis set group =>   6
Atom  16H    basis set group =>   6
Atom  17H    basis set group =>   6
Atom  18H    basis set group =>   6
Atom  19H    basis set group =>   6
Atom  20H    basis set group =>   6
Atom  21H    basis set group =>   6
Atom  22H    basis set group =>   6
Atom  23H    basis set group =>   6
Atom  24H    basis set group =>   6
Atom  25H    basis set group =>   6
Atom  26H    basis set group =>   6
Atom  27H    basis set group =>   6
Atom  28H    basis set group =>   6
-------------------------
ECP PARAMETER INFORMATION
-------------------------

 Group 1, Type Sn ECP Def2-ECP (replacing 28 core electrons, lmax=3)

Atom   1Sn   ECP group =>   1

------------------------------------------------------------------------------
                           ORCA GTO INTEGRAL CALCULATION
------------------------------------------------------------------------------
------------------------------------------------------------------------------
                   ___                                                        
                  /   \      - P O W E R E D   B Y -                         
                 /     \                                                     
                 |  |  |   _    _      __       _____    __    __             
                 |  |  |  | |  | |    /  \     |  _  \  |  |  /  |          
                  \  \/   | |  | |   /    \    | | | |  |  | /  /          
                 / \  \   | |__| |  /  /\  \   | |_| |  |  |/  /          
                |  |  |   |  __  | /  /__\  \  |    /   |      \           
                |  |  |   | |  | | |   __   |  |    \   |  |\   \          
                \     /   | |  | | |  |  |  |  | |\  \  |  | \   \       
                 \___/    |_|  |_| |__|  |__|  |_| \__\ |__|  \__/        
                                                                              
                      - O R C A' S   B I G   F R I E N D -                    
                                      &                                       
                       - I N T E G R A L  F E E D E R -                       
                                                                              
 v1 FN, 2020, v2 2021                                                         
------------------------------------------------------------------------------


Reading SHARK input file START_a007_b069.SHARKINP.tmp ... ok
----------------------
SHARK INTEGRAL PACKAGE
----------------------

Number of atoms                             ...     29
Number of basis functions                   ...    316
Number of shells                            ...    148
Maximum angular momentum                    ...      2
Integral batch strategy                     ... SHARK/LIBINT Hybrid
RI-J (if used) integral strategy            ... SPLIT-RIJ (Revised 2003 algorithm where possible)
Printlevel                                  ...      1
Contraction scheme used                     ... SEGMENTED contraction
Coulomb Range Separation                    ... NOT USED
Exchange Range Separation                   ... NOT USED
Finite Nucleus Model                        ... NOT USED
Auxiliary Coulomb fitting basis             ... NOT available
Auxiliary J/K fitting basis                 ... NOT available
Auxiliary Correlation fitting basis         ... NOT available
Auxiliary 'external' fitting basis          ... NOT available
Integral threshold                          ...     1.000000e-10
Primitive cut-off                           ...     1.000000e-11
Primitive pair pre-selection threshold      ...     1.000000e-11

Calculating pre-screening integrals         ... done (  0.1 sec) Dimension = 148
Organizing shell pair data                  ... done (  0.0 sec)
Shell pair information
Total number of shell pairs                 ...     11026
Shell pairs after pre-screening             ...      8019
Total number of primitive shell pairs       ...     44569
Primitive shell pairs kept                  ...     19909
          la=0 lb=0:   2431 shell pairs
          la=1 lb=0:   3023 shell pairs
          la=1 lb=1:    983 shell pairs
          la=2 lb=0:    910 shell pairs
          la=2 lb=1:    574 shell pairs
          la=2 lb=2:     98 shell pairs

Calculating one electron integrals          ... done (  0.1 sec)
Calculating ECP integrals                   ... done (  0.2 sec)
Calculating Nuclear repulsion               ... done (  0.0 sec) ENN=   2264.623007680264 Eh

SHARK setup successfully completed in   0.6 seconds

Maximum memory used throughout the entire GTOINT-calculation: 57.8 MB
-------------------------------------------------------------------------------
                                 ORCA SCF
-------------------------------------------------------------------------------

------------
SCF SETTINGS
------------
Hamiltonian:
 Ab initio Hamiltonian  Method          .... Hartree-Fock(GTOs)


General Settings:
 Integral files         IntName         .... START_a007_b069
 Hartree-Fock type      HFTyp           .... RHF
 Total Charge           Charge          ....    0
 Multiplicity           Mult            ....    1
 Number of Electrons    NEL             ....  186
 Basis Dimension        Dim             ....  316
 Nuclear Repulsion      ENuc            ....   2264.6230076803 Eh

Convergence Acceleration:
 DIIS                   CNVDIIS         .... on
   Start iteration      DIISMaxIt       ....    12
   Startup error        DIISStart       ....  0.200000
   # of expansion vecs  DIISMaxEq       ....     5
   Bias factor          DIISBfac        ....   1.050
   Max. coefficient     DIISMaxC        ....  10.000
 Trust-Rad. Augm. Hess. CNVTRAH         .... auto
   Auto Start mean grad. ratio tolernc. ....  1.125000
   Auto Start start iteration           ....    20
   Auto Start num. interpolation iter.  ....    10
   Max. Number of Micro iterations      ....    16
   Max. Number of Macro iterations      .... Maxiter - #DIIS iter
   Number of Davidson start vectors     ....     2
   Converg. threshold I  (grad. norm)   ....   5.000e-05
   Converg. threshold II (energy diff.) ....   1.000e-06
   Grad. Scal. Fac. for Micro threshold ....   0.100
   Minimum threshold for Micro iter.    ....   0.010
   NR start threshold (gradient norm)   ....   0.001
   Initial trust radius                 ....   0.400
   Minimum AH scaling param. (alpha)    ....   1.000
   Maximum AH scaling param. (alpha)    .... 1000.000
   Orbital update algorithm             .... Taylor
   White noise on init. David. guess    .... on
   Maximum white noise                  ....   0.010
   Quad. conv. algorithm                .... NR
 SOSCF                  CNVSOSCF        .... on
   Start iteration      SOSCFMaxIt      ....   150
   Startup grad/error   SOSCFStart      ....  0.003300
 Level Shifting         CNVShift        .... on
   Level shift para.    LevelShift      ....    0.2500
   Turn off err/grad.   ShiftErr        ....    0.0010
 Zerner damping         CNVZerner       .... off
 Static damping         CNVDamp         .... on
   Fraction old density DampFac         ....    0.7000
   Max. Damping (<1)    DampMax         ....    0.9800
   Min. Damping (>=0)   DampMin         ....    0.0000
   Turn off err/grad.   DampErr         ....    0.1000
 Fernandez-Rico         CNVRico         .... off

SCF Procedure:
 Maximum # iterations   MaxIter         ....     0
 SCF integral mode      SCFMode         .... Direct
   Integral package                     .... SHARK and LIBINT hybrid scheme
 Reset frequency        DirectResetFreq ....    20
 Integral Threshold     Thresh          ....  1.000e-10 Eh
 Primitive CutOff       TCut            ....  1.000e-11 Eh

Convergence Tolerance:
 Convergence Check Mode ConvCheckMode   .... Total+1el-Energy
 Convergence forced     ConvForced      .... 0
 Energy Change          TolE            ....  1.000e-06 Eh
 1-El. energy change                    ....  1.000e-03 Eh
 Orbital Gradient       TolG            ....  5.000e-05
 Orbital Rotation angle TolX            ....  5.000e-05
 DIIS Error             TolErr          ....  1.000e-06


Diagonalization of the overlap matrix:
Smallest eigenvalue                        ... 4.718e-03
Time for diagonalization                   ...    0.013 sec
Threshold for overlap eigenvalues          ... 1.000e-08
Number of eigenvalues below threshold      ... 0
Time for construction of square roots      ...    0.004 sec
Total time needed                          ...    0.017 sec

Time for model grid setup =    0.629 sec

------------------------------
INITIAL GUESS: MODEL POTENTIAL
------------------------------
Loading Hartree-Fock densities                     ... done
  calling /opt/bwhpc/common/chem/orca/5.0.2_static/orca START_a007_b069_atom50.inp > START_a007_b069_atom50.out in order to generate an atomic fitting density for atom 1 (Sn with ECP) on-the-fly... 
    atom 1 (Sn), assumed electronic state with S=3: 1s2 2s2 2p6 3s2 3p6 4s2 3d10 4p6 5s2 4d10 5p2           ... done
Calculating cut-offs                               ... done
Initializing the effective Hamiltonian             ... done
Setting up the integral package (SHARK)            ... done
Starting the Coulomb interaction                   ... done (   0.6 sec)
Reading the grid                                   ... done
Mapping shells                                     ... done
Starting the XC term evaluation                    ... done (   0.3 sec)
Transforming the Hamiltonian                       ... done (   0.0 sec)
Diagonalizing the Hamiltonian                      ... done (   0.0 sec)
Back transforming the eigenvectors                 ... done (   0.0 sec)
Now organizing SCF variables                       ... done
                      ------------------
                      INITIAL GUESS DONE (   2.0 sec)
                      ------------------

     ****MaxIter==0 has been chosen - skipping the SCF****

!!!!!!!!!!!!!!!!!!!!!!!!!!!!!!!!!!!!!!!!!!!!!!!!!!!!!!!!!!!
!! SERIOUS WARNING: The orbitals and populations did NOT !!
!!                  come from a CONVERGED calculation    !!
!!!!!!!!!!!!!!!!!!!!!!!!!!!!!!!!!!!!!!!!!!!!!!!!!!!!!!!!!!!

THE WAVEFUNCTION AND DENSITY WILL STILL BE STORED BUT BE CAREFUL
MAKE SURE THAT WHAT YOU INPUT MAKES ACTUALLY SENSE!

             **** DENSITY START_a007_b069.scfp WAS UPDATED ****
----------------
ORBITAL ENERGIES
----------------

  NO   OCC          E(Eh)            E(eV) 
   0   2.0000    -100.405979     -2732.1856 
   1   2.0000    -100.403638     -2732.1219 
   2   2.0000    -100.400124     -2732.0263 
   3   2.0000    -100.396669     -2731.9323 
   4   2.0000     -87.767656     -2388.2793 
   5   2.0000     -87.713971     -2386.8185 
   6   2.0000     -14.056195      -382.4885 
   7   2.0000     -14.054676      -382.4472 
   8   2.0000      -9.962988      -271.1067 
   9   2.0000      -9.962622      -271.0967 
  10   2.0000      -9.961590      -271.0687 
  11   2.0000      -9.960800      -271.0472 
  12   2.0000      -9.956643      -270.9340 
  13   2.0000      -9.953868      -270.8585 
  14   2.0000      -9.938317      -270.4354 
  15   2.0000      -9.303054      -253.1490 
  16   2.0000      -9.300651      -253.0836 
  17   2.0000      -9.297060      -252.9859 
  18   2.0000      -9.293526      -252.8897 
  19   2.0000      -8.155018      -221.9093 
  20   2.0000      -8.154111      -221.8846 
  21   2.0000      -8.153804      -221.8763 
  22   2.0000      -7.752466      -210.9553 
  23   2.0000      -7.695582      -209.4074 
  24   2.0000      -7.163207      -194.9208 
  25   2.0000      -7.160749      -194.8539 
  26   2.0000      -7.157139      -194.7557 
  27   2.0000      -7.155297      -194.7055 
  28   2.0000      -7.155261      -194.7045 
  29   2.0000      -7.153551      -194.6580 
  30   2.0000      -7.152966      -194.6421 
  31   2.0000      -7.152919      -194.6408 
  32   2.0000      -7.149450      -194.5464 
  33   2.0000      -7.149421      -194.5456 
  34   2.0000      -7.145991      -194.4523 
  35   2.0000      -7.145949      -194.4511 
  36   2.0000      -5.809372      -158.0810 
  37   2.0000      -5.806145      -157.9932 
  38   2.0000      -5.803246      -157.9143 
  39   2.0000      -5.752280      -156.5275 
  40   2.0000      -5.748944      -156.4367 
  41   2.0000      -5.748858      -156.4344 
  42   2.0000      -5.324754      -144.8939 
  43   2.0000      -5.305903      -144.3809 
  44   2.0000      -5.304053      -144.3306 
  45   2.0000      -5.291877      -143.9993 
  46   2.0000      -5.287568      -143.8820 
  47   2.0000      -2.228673       -60.6453 
  48   2.0000      -1.607359       -43.7385 
  49   2.0000      -1.594766       -43.3958 
  50   2.0000      -1.587791       -43.2060 
  51   2.0000      -1.003968       -27.3194 
  52   2.0000      -0.998806       -27.1789 
  53   2.0000      -0.997590       -27.1458 
  54   2.0000      -0.947193       -25.7744 
  55   2.0000      -0.942769       -25.6541 
  56   2.0000      -0.933015       -25.3886 
  57   2.0000      -0.840055       -22.8590 
  58   2.0000      -0.804261       -21.8851 
  59   2.0000      -0.775966       -21.1151 
  60   2.0000      -0.775789       -21.1103 
  61   2.0000      -0.757496       -20.6125 
  62   2.0000      -0.720945       -19.6179 
  63   2.0000      -0.687737       -18.7143 
  64   2.0000      -0.674356       -18.3502 
  65   2.0000      -0.656937       -17.8762 
  66   2.0000      -0.652076       -17.7439 
  67   2.0000      -0.650180       -17.6923 
  68   2.0000      -0.614716       -16.7273 
  69   2.0000      -0.613177       -16.6854 
  70   2.0000      -0.577763       -15.7217 
  71   2.0000      -0.574693       -15.6382 
  72   2.0000      -0.541241       -14.7279 
  73   2.0000      -0.539235       -14.6733 
  74   2.0000      -0.536446       -14.5974 
  75   2.0000      -0.519320       -14.1314 
  76   2.0000      -0.482345       -13.1253 
  77   2.0000      -0.476705       -12.9718 
  78   2.0000      -0.475189       -12.9306 
  79   2.0000      -0.473180       -12.8759 
  80   2.0000      -0.472660       -12.8617 
  81   2.0000      -0.463079       -12.6010 
  82   2.0000      -0.457825       -12.4581 
  83   2.0000      -0.455489       -12.3945 
  84   2.0000      -0.451816       -12.2945 
  85   2.0000      -0.448548       -12.2056 
  86   2.0000      -0.441933       -12.0256 
  87   2.0000      -0.441048       -12.0015 
  88   2.0000      -0.436613       -11.8809 
  89   2.0000      -0.435260       -11.8440 
  90   2.0000      -0.417847       -11.3702 
  91   2.0000      -0.403546       -10.9810 
  92   2.0000      -0.397896       -10.8273 
  93   0.0000      -0.381537       -10.3821 
  94   0.0000      -0.374282       -10.1847 
  95   0.0000      -0.363075        -9.8798 
  96   0.0000      -0.320362        -8.7175 
  97   0.0000      -0.319287        -8.6882 
  98   0.0000      -0.313873        -8.5409 
  99   0.0000      -0.291336        -7.9277 
 100   0.0000      -0.276914        -7.5352 
 101   0.0000      -0.255020        -6.9395 
 102   0.0000      -0.159953        -4.3525 
 103   0.0000      -0.145586        -3.9616 
 104   0.0000      -0.140906        -3.8343 
 105   0.0000      -0.068612        -1.8670 
 106   0.0000      -0.031783        -0.8649 
 107   0.0000      -0.025315        -0.6888 
 108   0.0000      -0.021813        -0.5936 
 109   0.0000      -0.019165        -0.5215 
 110   0.0000      -0.007429        -0.2021 
 111   0.0000       0.002156         0.0587 
 112   0.0000       0.005931         0.1614 
 113   0.0000       0.016600         0.4517 
 114   0.0000       0.020807         0.5662 
 115   0.0000       0.028445         0.7740 
 116   0.0000       0.037018         1.0073 
 117   0.0000       0.040828         1.1110 
 118   0.0000       0.041816         1.1379 
 119   0.0000       0.045268         1.2318 
 120   0.0000       0.049007         1.3336 
 121   0.0000       0.051264         1.3950 
 122   0.0000       0.061466         1.6726 
 123   0.0000       0.066099         1.7986 
 124   0.0000       0.076982         2.0948 
 125   0.0000       0.083108         2.2615 
 126   0.0000       0.113130         3.0784 
 127   0.0000       0.126893         3.4529 
 128   0.0000       0.155418         4.2291 
 129   0.0000       0.167577         4.5600 
 130   0.0000       0.253458         6.8969 
 131   0.0000       0.259270         7.0551 
 132   0.0000       0.274862         7.4794 
 133   0.0000       0.278137         7.5685 
 134   0.0000       0.279488         7.6053 
 135   0.0000       0.290930         7.9166 
 136   0.0000       0.294282         8.0078 
 137   0.0000       0.302389         8.2284 
 138   0.0000       0.327126         8.9015 
 139   0.0000       0.348663         9.4876 
 140   0.0000       0.354424         9.6444 
 141   0.0000       0.359999         9.7961 
 142   0.0000       0.369756        10.0616 
 143   0.0000       0.380768        10.3612 
 144   0.0000       0.388249        10.5648 
 145   0.0000       0.417880        11.3711 
 146   0.0000       0.426436        11.6039 
 147   0.0000       0.444004        12.0820 
 148   0.0000       0.446189        12.1414 
 149   0.0000       0.452302        12.3078 
 150   0.0000       0.453439        12.3387 
 151   0.0000       0.458419        12.4742 
 152   0.0000       0.466447        12.6927 
 153   0.0000       0.475247        12.9321 
 154   0.0000       0.478058        13.0086 
 155   0.0000       0.480114        13.0646 
 156   0.0000       0.480603        13.0779 
 157   0.0000       0.482443        13.1279 
 158   0.0000       0.489130        13.3099 
 159   0.0000       0.494252        13.4493 
 160   0.0000       0.494590        13.4585 
 161   0.0000       0.496741        13.5170 
 162   0.0000       0.498389        13.5619 
 163   0.0000       0.500423        13.6172 
 164   0.0000       0.505980        13.7684 
 165   0.0000       0.506966        13.7952 
 166   0.0000       0.511266        13.9123 
 167   0.0000       0.513953        13.9854 
 168   0.0000       0.519048        14.1240 
 169   0.0000       0.521417        14.1885 
 170   0.0000       0.524009        14.2590 
 171   0.0000       0.528447        14.3798 
 172   0.0000       0.534736        14.5509 
 173   0.0000       0.536648        14.6029 
 174   0.0000       0.538786        14.6611 
 175   0.0000       0.544560        14.8182 
 176   0.0000       0.545576        14.8459 
 177   0.0000       0.549383        14.9495 
 178   0.0000       0.551247        15.0002 
 179   0.0000       0.553245        15.0546 
 180   0.0000       0.553731        15.0678 
 181   0.0000       0.557444        15.1688 
 182   0.0000       0.562055        15.2943 
 183   0.0000       0.563573        15.3356 
 184   0.0000       0.565748        15.3948 
 185   0.0000       0.570448        15.5227 
 186   0.0000       0.579637        15.7727 
 187   0.0000       0.582383        15.8475 
 188   0.0000       0.583683        15.8828 
 189   0.0000       0.593497        16.1499 
 190   0.0000       0.599838        16.3224 
 191   0.0000       0.602916        16.4062 
 192   0.0000       0.608033        16.5454 
 193   0.0000       0.615985        16.7618 
 194   0.0000       0.628871        17.1124 
 195   0.0000       0.631537        17.1850 
 196   0.0000       0.633994        17.2519 
 197   0.0000       0.657959        17.9040 
 198   0.0000       0.661183        17.9917 
 199   0.0000       0.668627        18.1943 
 200   0.0000       0.673972        18.3397 
 201   0.0000       0.695127        18.9154 
 202   0.0000       0.708267        19.2729 
 203   0.0000       0.717115        19.5137 
 204   0.0000       0.722916        19.6715 
 205   0.0000       0.739879        20.1331 
 206   0.0000       0.763264        20.7695 
 207   0.0000       0.778771        21.1914 
 208   0.0000       0.798471        21.7275 
 209   0.0000       0.799192        21.7471 
 210   0.0000       0.811686        22.0871 
 211   0.0000       0.826125        22.4800 
 212   0.0000       0.840752        22.8780 
 213   0.0000       0.844486        22.9796 
 214   0.0000       0.855230        23.2720 
 215   0.0000       0.874835        23.8055 
 216   0.0000       0.883958        24.0537 
 217   0.0000       0.906235        24.6599 
 218   0.0000       0.915441        24.9104 
 219   0.0000       0.934571        25.4310 
 220   0.0000       0.936239        25.4763 
 221   0.0000       0.950507        25.8646 
 222   0.0000       0.972631        26.4666 
 223   0.0000       0.975488        26.5444 
 224   0.0000       0.977983        26.6123 
 225   0.0000       0.998680        27.1755 
 226   0.0000       0.999921        27.2092 
 227   0.0000       1.045110        28.4389 
 228   0.0000       1.069720        29.1086 
 229   0.0000       1.089714        29.6526 
 230   0.0000       1.098301        29.8863 
 231   0.0000       1.113681        30.3048 
 232   0.0000       1.163553        31.6619 
 233   0.0000       1.186856        32.2960 
 234   0.0000       1.281086        34.8601 
 235   0.0000       1.283996        34.9393 
 236   0.0000       1.311918        35.6991 
 237   0.0000       1.332727        36.2654 
 238   0.0000       1.340978        36.4899 
 239   0.0000       1.355115        36.8746 
 240   0.0000       1.381781        37.6002 
 241   0.0000       1.382995        37.6332 
 242   0.0000       1.388353        37.7790 
 243   0.0000       1.389402        37.8076 
 244   0.0000       1.457357        39.6567 
 245   0.0000       1.474737        40.1296 
 246   0.0000       1.516629        41.2696 
 247   0.0000       1.524199        41.4756 
 248   0.0000       1.600898        43.5626 
 249   0.0000       1.604877        43.6709 
 250   0.0000       1.615222        43.9524 
 251   0.0000       1.633785        44.4576 
 252   0.0000       1.641868        44.6775 
 253   0.0000       1.650512        44.9127 
 254   0.0000       1.658157        45.1207 
 255   0.0000       1.664765        45.3006 
 256   0.0000       1.668683        45.4072 
 257   0.0000       1.669667        45.4339 
 258   0.0000       1.675991        45.6060 
 259   0.0000       1.695653        46.1411 
 260   0.0000       1.699246        46.2388 
 261   0.0000       1.717667        46.7401 
 262   0.0000       1.757820        47.8327 
 263   0.0000       1.774859        48.2964 
 264   0.0000       1.818101        49.4730 
 265   0.0000       1.821310        49.5604 
 266   0.0000       1.842638        50.1407 
 267   0.0000       1.846116        50.2354 
 268   0.0000       1.861104        50.6432 
 269   0.0000       1.889432        51.4141 
 270   0.0000       1.901409        51.7400 
 271   0.0000       1.930902        52.5425 
 272   0.0000       1.945246        52.9328 
 273   0.0000       1.948250        53.0146 
 274   0.0000       1.993343        54.2416 
 275   0.0000       1.997507        54.3549 
 276   0.0000       2.057619        55.9906 
 277   0.0000       2.071466        56.3674 
 278   0.0000       2.098003        57.0896 
 279   0.0000       2.128709        57.9251 
 280   0.0000       2.155339        58.6498 
 281   0.0000       2.172702        59.1222 
 282   0.0000       2.183993        59.4295 
 283   0.0000       2.187067        59.5131 
 284   0.0000       2.257196        61.4214 
 285   0.0000       2.264728        61.6264 
 286   0.0000       2.265405        61.6448 
 287   0.0000       2.283171        62.1283 
 288   0.0000       2.439583        66.3844 
 289   0.0000       2.457802        66.8802 
 290   0.0000       2.461922        66.9923 
 291   0.0000       2.473997        67.3209 
 292   0.0000       2.508841        68.2690 
 293   0.0000       2.520332        68.5817 
 294   0.0000       2.548687        69.3533 
 295   0.0000       2.573960        70.0410 
 296   0.0000       2.605897        70.9101 
 297   0.0000       2.611481        71.0620 
 298   0.0000       2.657603        72.3171 
 299   0.0000       2.685871        73.0863 
 300   0.0000       2.709985        73.7424 
 301   0.0000       2.734464        74.4085 
 302   0.0000       2.736538        74.4650 
 303   0.0000       2.759031        75.0771 
 304   0.0000       2.763077        75.1872 
 305   0.0000       2.781002        75.6749 
 306   0.0000       2.796574        76.0987 
 307   0.0000       2.799158        76.1690 
 308   0.0000       2.994579        81.4866 
 309   0.0000       2.998418        81.5911 
 310   0.0000       3.050167        82.9993 
 311   0.0000       3.066488        83.4434 
 312   0.0000       9.493943       258.3433 
 313   0.0000       9.561183       260.1730 
 314   0.0000       9.640133       262.3214 
 315   0.0000      43.514751      1184.0966 

                    ********************************
                    * MULLIKEN POPULATION ANALYSIS *
                    ********************************

-----------------------
MULLIKEN ATOMIC CHARGES
-----------------------
   0 Cl:    1.386570
   1 Sn:  -13.465874
   2 Cl:    1.152255
   3 Cl:    1.080810
   4 Cl:    1.138309
   5 S :    2.424041
   6 C :    0.505012
   7 N :    0.494258
   8 C :   -0.180838
   9 C :   -0.168383
  10 S :    2.702541
  11 C :    0.166265
  12 N :    0.369397
  13 C :   -0.203785
  14 C :   -0.201436
  15 H :    0.254467
  16 H :    0.172099
  17 H :    0.220209
  18 H :    0.216328
  19 H :    0.222074
  20 H :    0.226776
  21 H :    0.150025
  22 H :    0.207855
  23 H :    0.189361
  24 H :    0.169332
  25 H :    0.208869
  26 H :    0.207824
  27 H :    0.169798
  28 H :    0.185844
Sum of atomic charges:    0.0000000

--------------------------------
MULLIKEN REDUCED ORBITAL CHARGES
--------------------------------
  0 Cls       :     5.996683  s :     5.996683
      pz      :     3.312560  p :     9.575404
      px      :     2.955025
      py      :     3.307818
      dz2     :    -0.000764  d :     0.041344
      dxz     :     0.019144
      dyz     :     0.002486
      dx2y2   :     0.006955
      dxy     :     0.013522
  1 Sns       :     4.030330  s :     4.030330
      pz      :     4.246881  p :    12.681443
      px      :     4.262000
      py      :     4.172563
      dz2     :     3.774571  d :    18.754101
      dxz     :     3.687766
      dyz     :     3.731163
      dx2y2   :     3.815457
      dxy     :     3.745144
  2 Cls       :     6.005465  s :     6.005465
      pz      :     3.472089  p :     9.798468
      px      :     3.253191
      py      :     3.073188
      dz2     :    -0.000795  d :     0.043813
      dxz     :     0.001391
      dyz     :     0.024214
      dx2y2   :    -0.000131
      dxy     :     0.019134
  3 Cls       :     6.028179  s :     6.028179
      pz      :     3.172171  p :     9.847604
      px      :     3.339274
      py      :     3.336159
      dz2     :     0.012883  d :     0.043407
      dxz     :     0.013575
      dyz     :     0.006022
      dx2y2   :     0.005809
      dxy     :     0.005118
  4 Cls       :     6.031329  s :     6.031329
      pz      :     3.150464  p :     9.788106
      px      :     3.324246
      py      :     3.313395
      dz2     :     0.013652  d :     0.042256
      dxz     :     0.013026
      dyz     :     0.004071
      dx2y2   :     0.005931
      dxy     :     0.005577
  5 S s       :     5.771843  s :     5.771843
      pz      :     2.582885  p :     7.744366
      px      :     2.735033
      py      :     2.426448
      dz2     :     0.000916  d :     0.059750
      dxz     :     0.002432
      dyz     :     0.012821
      dx2y2   :     0.022083
      dxy     :     0.021499
  6 C s       :     3.001106  s :     3.001106
      pz      :     0.714934  p :     2.460211
      px      :     0.891796
      py      :     0.853481
      dz2     :     0.004957  d :     0.033671
      dxz     :     0.003304
      dyz     :     0.001277
      dx2y2   :     0.011979
      dxy     :     0.012153
  7 N s       :     3.394898  s :     3.394898
      pz      :     0.842711  p :     3.080715
      px      :     1.091626
      py      :     1.146378
      dz2     :     0.002545  d :     0.030130
      dxz     :     0.004846
      dyz     :     0.004025
      dx2y2   :     0.010598
      dxy     :     0.008116
  8 C s       :     3.055488  s :     3.055488
      pz      :     1.116759  p :     3.093981
      px      :     1.068867
      py      :     0.908355
      dz2     :     0.006107  d :     0.031370
      dxz     :     0.002126
      dyz     :     0.006284
      dx2y2   :     0.008393
      dxy     :     0.008461
  9 C s       :     3.046187  s :     3.046187
      pz      :     1.108637  p :     3.091167
      px      :     1.083565
      py      :     0.898965
      dz2     :     0.006408  d :     0.031029
      dxz     :     0.006032
      dyz     :     0.001861
      dx2y2   :     0.005739
      dxy     :     0.010988
 10 S s       :     5.928630  s :     5.928630
      pz      :     2.376320  p :     7.311945
      px      :     2.683155
      py      :     2.252470
      dz2     :     0.006922  d :     0.056884
      dxz     :     0.026375
      dyz     :     0.004276
      dx2y2   :     0.012004
      dxy     :     0.007308
 11 C s       :     3.110938  s :     3.110938
      pz      :     1.035341  p :     2.691347
      px      :     0.877373
      py      :     0.778632
      dz2     :     0.005249  d :     0.031450
      dxz     :     0.012471
      dyz     :     0.001426
      dx2y2   :     0.008990
      dxy     :     0.003315
 12 N s       :     3.380450  s :     3.380450
      pz      :     1.147711  p :     3.218215
      px      :     1.081720
      py      :     0.988784
      dz2     :     0.007936  d :     0.031937
      dxz     :     0.009981
      dyz     :     0.003800
      dx2y2   :     0.004597
      dxy     :     0.005623
 13 C s       :     3.052655  s :     3.052655
      pz      :     0.989169  p :     3.118175
      px      :     1.002011
      py      :     1.126995
      dz2     :     0.009030  d :     0.032955
      dxz     :     0.010342
      dyz     :     0.002066
      dx2y2   :     0.003890
      dxy     :     0.007627
 14 C s       :     3.053819  s :     3.053819
      pz      :     0.869260  p :     3.114261
      px      :     1.115249
      py      :     1.129751
      dz2     :     0.010579  d :     0.033356
      dxz     :     0.010023
      dyz     :     0.003435
      dx2y2   :     0.003262
      dxy     :     0.006056
 15 H s       :     0.723131  s :     0.723131
      pz      :     0.002997  p :     0.022403
      px      :     0.004604
      py      :     0.014802
 16 H s       :     0.801762  s :     0.801762
      pz      :     0.005254  p :     0.026140
      px      :     0.017034
      py      :     0.003851
 17 H s       :     0.753377  s :     0.753377
      pz      :     0.014393  p :     0.026414
      px      :     0.005131
      py      :     0.006890
 18 H s       :     0.757216  s :     0.757216
      pz      :     0.013436  p :     0.026456
      px      :     0.004916
      py      :     0.008104
 19 H s       :     0.751928  s :     0.751928
      pz      :     0.014145  p :     0.025999
      px      :     0.008693
      py      :     0.003161
 20 H s       :     0.747187  s :     0.747187
      pz      :     0.013712  p :     0.026037
      px      :     0.009239
      py      :     0.003086
 21 H s       :     0.823884  s :     0.823884
      pz      :     0.005128  p :     0.026091
      px      :     0.009929
      py      :     0.011034
 22 H s       :     0.768802  s :     0.768802
      pz      :     0.017482  p :     0.023342
      px      :     0.002449
      py      :     0.003412
 23 H s       :     0.783815  s :     0.783815
      pz      :     0.004134  p :     0.026824
      px      :     0.009590
      py      :     0.013100
 24 H s       :     0.804237  s :     0.804237
      pz      :     0.014709  p :     0.026431
      px      :     0.006199
      py      :     0.005523
 25 H s       :     0.764767  s :     0.764767
      pz      :     0.003872  p :     0.026365
      px      :     0.007259
      py      :     0.015234
 26 H s       :     0.765887  s :     0.765887
      pz      :     0.003085  p :     0.026289
      px      :     0.007065
      py      :     0.016139
 27 H s       :     0.804129  s :     0.804129
      pz      :     0.008964  p :     0.026074
      px      :     0.011628
      py      :     0.005482
 28 H s       :     0.787681  s :     0.787681
      pz      :     0.003259  p :     0.026475
      px      :     0.011416
      py      :     0.011800


                     *******************************
                     * LOEWDIN POPULATION ANALYSIS *
                     *******************************

----------------------
LOEWDIN ATOMIC CHARGES
----------------------
   0 Cl:    1.092682
   1 Sn:  -12.088432
   2 Cl:    0.867291
   3 Cl:    0.854633
   4 Cl:    0.913696
   5 S :    2.384881
   6 C :    0.278961
   7 N :    0.733980
   8 C :   -0.065040
   9 C :   -0.045665
  10 S :    2.835485
  11 C :    0.079679
  12 N :    0.584881
  13 C :   -0.088237
  14 C :   -0.088994
  15 H :    0.157068
  16 H :    0.104591
  17 H :    0.144155
  18 H :    0.140871
  19 H :    0.146417
  20 H :    0.149758
  21 H :    0.087683
  22 H :    0.126863
  23 H :    0.114784
  24 H :    0.097243
  25 H :    0.135816
  26 H :    0.134541
  27 H :    0.093176
  28 H :    0.117234

-------------------------------
LOEWDIN REDUCED ORBITAL CHARGES
-------------------------------
  0 Cls       :     5.895215  s :     5.895215
      pz      :     3.352177  p :     9.903566
      px      :     3.195632
      py      :     3.355757
      dz2     :     0.011719  d :     0.108537
      dxz     :     0.028125
      dyz     :     0.003508
      dx2y2   :     0.033368
      dxy     :     0.031817
  1 Sns       :     4.128712  s :     4.128712
      pz      :     4.196730  p :    12.613527
      px      :     4.215022
      py      :     4.201774
      dz2     :     3.440157  d :    17.346193
      dxz     :     3.517435
      dyz     :     3.460046
      dx2y2   :     3.437458
      dxy     :     3.491096
  2 Cls       :     5.896468  s :     5.896468
      pz      :     3.497364  p :    10.118673
      px      :     3.312422
      py      :     3.308886
      dz2     :     0.012117  d :     0.117568
      dxz     :     0.002198
      dyz     :     0.035508
      dx2y2   :     0.033106
      dxy     :     0.034640
  3 Cls       :     5.895539  s :     5.895539
      pz      :     3.340835  p :    10.136293
      px      :     3.390802
      py      :     3.404656
      dz2     :     0.036636  d :     0.113536
      dxz     :     0.026161
      dyz     :     0.031957
      dx2y2   :     0.009363
      dxy     :     0.009419
  4 Cls       :     5.897020  s :     5.897020
      pz      :     3.317736  p :    10.079440
      px      :     3.375442
      py      :     3.386262
      dz2     :     0.034397  d :     0.109845
      dxz     :     0.024244
      dyz     :     0.031107
      dx2y2   :     0.010066
      dxy     :     0.010031
  5 S s       :     5.498600  s :     5.498600
      pz      :     2.592721  p :     8.002853
      px      :     2.850371
      py      :     2.559761
      dz2     :     0.014846  d :     0.113666
      dxz     :     0.007700
      dyz     :     0.013549
      dx2y2   :     0.039312
      dxy     :     0.038259
  6 C s       :     2.887266  s :     2.887266
      pz      :     0.742476  p :     2.751791
      px      :     1.009784
      py      :     0.999532
      dz2     :     0.010512  d :     0.081981
      dxz     :     0.006275
      dyz     :     0.002295
      dx2y2   :     0.030080
      dxy     :     0.032820
  7 N s       :     3.046355  s :     3.046355
      pz      :     0.794963  p :     3.150425
      px      :     1.181335
      py      :     1.174126
      dz2     :     0.004623  d :     0.069240
      dxz     :     0.008476
      dyz     :     0.006672
      dx2y2   :     0.026673
      dxy     :     0.022796
  8 C s       :     2.855810  s :     2.855810
      pz      :     1.112605  p :     3.138705
      px      :     1.075454
      py      :     0.950646
      dz2     :     0.014596  d :     0.070525
      dxz     :     0.004005
      dyz     :     0.013610
      dx2y2   :     0.017216
      dxy     :     0.021098
  9 C s       :     2.854964  s :     2.854964
      pz      :     1.099475  p :     3.120813
      px      :     1.079577
      py      :     0.941761
      dz2     :     0.015217  d :     0.069888
      dxz     :     0.013140
      dyz     :     0.003383
      dx2y2   :     0.011919
      dxy     :     0.026229
 10 S s       :     5.670925  s :     5.670925
      pz      :     2.427016  p :     7.416336
      px      :     2.741551
      py      :     2.247769
      dz2     :     0.008206  d :     0.077253
      dxz     :     0.039553
      dyz     :     0.004773
      dx2y2   :     0.016688
      dxy     :     0.008033
 11 C s       :     2.919406  s :     2.919406
      pz      :     1.109588  p :     2.922102
      px      :     1.013743
      py      :     0.798770
      dz2     :     0.014566  d :     0.078813
      dxz     :     0.032297
      dyz     :     0.002608
      dx2y2   :     0.022839
      dxy     :     0.006503
 12 N s       :     3.046335  s :     3.046335
      pz      :     1.176215  p :     3.295537
      px      :     1.179123
      py      :     0.940199
      dz2     :     0.019275  d :     0.073247
      dxz     :     0.026643
      dyz     :     0.006752
      dx2y2   :     0.010993
      dxy     :     0.009583
 13 C s       :     2.854712  s :     2.854712
      pz      :     1.014242  p :     3.159047
      px      :     1.024705
      py      :     1.120100
      dz2     :     0.018796  d :     0.074478
      dxz     :     0.026824
      dyz     :     0.003809
      dx2y2   :     0.008560
      dxy     :     0.016489
 14 C s       :     2.854758  s :     2.854758
      pz      :     0.921535  p :     3.158892
      px      :     1.113213
      py      :     1.124143
      dz2     :     0.025890  d :     0.075345
      dxz     :     0.022474
      dyz     :     0.006700
      dx2y2   :     0.006853
      dxy     :     0.013428
 15 H s       :     0.769034  s :     0.769034
      pz      :     0.008786  p :     0.073899
      px      :     0.014892
      py      :     0.050220
 16 H s       :     0.815645  s :     0.815645
      pz      :     0.013793  p :     0.079764
      px      :     0.053959
      py      :     0.012011
 17 H s       :     0.775600  s :     0.775600
      pz      :     0.043354  p :     0.080245
      px      :     0.014641
      py      :     0.022250
 18 H s       :     0.778815  s :     0.778815
      pz      :     0.040273  p :     0.080313
      px      :     0.013824
      py      :     0.026217
 19 H s       :     0.773861  s :     0.773861
      pz      :     0.043133  p :     0.079721
      px      :     0.026232
      py      :     0.010357
 20 H s       :     0.770410  s :     0.770410
      pz      :     0.041767  p :     0.079833
      px      :     0.027982
      py      :     0.010083
 21 H s       :     0.833145  s :     0.833145
      pz      :     0.013398  p :     0.079172
      px      :     0.029731
      py      :     0.036044
 22 H s       :     0.795726  s :     0.795726
      pz      :     0.057086  p :     0.077411
      px      :     0.009744
      py      :     0.010581
 23 H s       :     0.804938  s :     0.804938
      pz      :     0.012061  p :     0.080279
      px      :     0.030143
      py      :     0.038075
 24 H s       :     0.822293  s :     0.822293
      pz      :     0.047378  p :     0.080464
      px      :     0.018515
      py      :     0.014571
 25 H s       :     0.784035  s :     0.784035
      pz      :     0.011273  p :     0.080149
      px      :     0.022584
      py      :     0.046292
 26 H s       :     0.785452  s :     0.785452
      pz      :     0.010419  p :     0.080007
      px      :     0.020092
      py      :     0.049495
 27 H s       :     0.827370  s :     0.827370
      pz      :     0.029360  p :     0.079454
      px      :     0.035585
      py      :     0.014508
 28 H s       :     0.802846  s :     0.802846
      pz      :     0.010804  p :     0.079920
      px      :     0.034665
      py      :     0.034451


                      *****************************
                      * MAYER POPULATION ANALYSIS *
                      *****************************

  NA   - Mulliken gross atomic population
  ZA   - Total nuclear charge
  QA   - Mulliken gross atomic charge
  VA   - Mayer's total valence
  BVA  - Mayer's bonded valence
  FA   - Mayer's free valence

  ATOM       NA         ZA         QA         VA         BVA        FA
  0 Cl    15.6134    17.0000     1.3866     2.3848     2.3848     0.0000
  1 Sn    35.4659    22.0000   -13.4659     1.3567     1.3567    -0.0000
  2 Cl    15.8477    17.0000     1.1523     2.1896     2.1896     0.0000
  3 Cl    15.9192    17.0000     1.0808     2.2497     2.2497     0.0000
  4 Cl    15.8617    17.0000     1.1383     2.2973     2.2973     0.0000
  5 S     13.5760    16.0000     2.4240     2.1607     2.1607     0.0000
  6 C      5.4950     6.0000     0.5050     3.6952     3.6952    -0.0000
  7 N      6.5057     7.0000     0.4943     4.0605     4.0605     0.0000
  8 C      6.1808     6.0000    -0.1808     3.8658     3.8658     0.0000
  9 C      6.1684     6.0000    -0.1684     3.8873     3.8873    -0.0000
 10 S     13.2975    16.0000     2.7025     1.5850     1.5850     0.0000
 11 C      5.8337     6.0000     0.1663     3.8103     3.8103    -0.0000
 12 N      6.6306     7.0000     0.3694     3.9674     3.9674    -0.0000
 13 C      6.2038     6.0000    -0.2038     3.8933     3.8933    -0.0000
 14 C      6.2014     6.0000    -0.2014     3.8897     3.8897     0.0000
 15 H      0.7455     1.0000     0.2545     0.9315     0.9315     0.0000
 16 H      0.8279     1.0000     0.1721     0.9819     0.9819     0.0000
 17 H      0.7798     1.0000     0.2202     0.9562     0.9562     0.0000
 18 H      0.7837     1.0000     0.2163     0.9582     0.9582    -0.0000
 19 H      0.7779     1.0000     0.2221     0.9583     0.9583     0.0000
 20 H      0.7732     1.0000     0.2268     0.9561     0.9561     0.0000
 21 H      0.8500     1.0000     0.1500     1.0025     1.0025     0.0000
 22 H      0.7921     1.0000     0.2079     0.9624     0.9624    -0.0000
 23 H      0.8106     1.0000     0.1894     0.9723     0.9723     0.0000
 24 H      0.8307     1.0000     0.1693     0.9796     0.9796     0.0000
 25 H      0.7911     1.0000     0.2089     0.9667     0.9667     0.0000
 26 H      0.7922     1.0000     0.2078     0.9656     0.9656     0.0000
 27 H      0.8302     1.0000     0.1698     0.9755     0.9755     0.0000
 28 H      0.8142     1.0000     0.1858     0.9737     0.9737     0.0000

  Mayer bond orders larger than 0.100000
B(  0-Cl,  1-Sn) :   0.3441 B(  0-Cl,  2-Cl) :   0.5067 B(  0-Cl,  3-Cl) :   0.4966 
B(  0-Cl,  4-Cl) :   0.5432 B(  0-Cl,  5-S ) :   0.3110 B(  1-Sn,  2-Cl) :   0.3040 
B(  1-Sn,  3-Cl) :   0.3495 B(  1-Sn,  4-Cl) :   0.3748 B(  1-Sn,  5-S ) :  -0.1687 
B(  2-Cl,  3-Cl) :   0.6520 B(  2-Cl,  4-Cl) :   0.6107 B(  3-Cl,  4-Cl) :   0.6092 
B(  5-S ,  6-C ) :   1.2668 B(  5-S ,  7-N ) :   0.2411 B(  6-C ,  7-N ) :   1.4741 
B(  6-C , 15-H ) :   0.7516 B(  7-N ,  8-C ) :   1.0486 B(  7-N ,  9-C ) :   1.0673 
B(  8-C , 16-H ) :   0.9380 B(  8-C , 17-H ) :   0.8760 B(  8-C , 18-H ) :   0.8824 
B(  9-C , 19-H ) :   0.8718 B(  9-C , 20-H ) :   0.8671 B(  9-C , 21-H ) :   0.9390 
B( 10-S , 11-C ) :   1.1554 B( 10-S , 12-N ) :   0.1646 B( 11-C , 12-N ) :   1.5636 
B( 11-C , 22-H ) :   0.8730 B( 12-N , 13-C ) :   1.0350 B( 12-N , 14-C ) :   1.0398 
B( 13-C , 23-H ) :   0.8971 B( 13-C , 24-H ) :   0.9393 B( 13-C , 25-H ) :   0.8927 
B( 14-C , 26-H ) :   0.8943 B( 14-C , 27-H ) :   0.9345 B( 14-C , 28-H ) :   0.9044 


-------
TIMINGS
-------

Total SCF time: 0 days 0 hours 0 min 2 sec 

Total time                  ....       2.112 sec
Sum of individual times     ....       1.978 sec  ( 93.7%)

Fock matrix formation       ....       0.000 sec  (  0.0%)
Diagonalization             ....       0.000 sec  (  0.0%)
Density matrix formation    ....       0.000 sec  (  0.0%)
Population analysis         ....       0.009 sec  (  0.4%)
Initial guess               ....       1.340 sec  ( 63.4%)
Orbital Transformation      ....       0.000 sec  (  0.0%)
Orbital Orthonormalization  ....       0.000 sec  (  0.0%)
DIIS solution               ....       0.000 sec  (  0.0%)
SOSCF solution              ....       0.000 sec  (  0.0%)

Maximum memory used throughout the entire SCF-calculation: 61.0 MB

-------------------------   --------------------
FINAL SINGLE POINT ENERGY         0.000000000000
-------------------------   --------------------


                            ***************************************
                            *     ORCA property calculations      *
                            ***************************************

                                    ---------------------
                                    Active property flags
                                    ---------------------
   (+) Dipole Moment


------------------------------------------------------------------------------
                       ORCA ELECTRIC PROPERTIES CALCULATION
------------------------------------------------------------------------------

Dipole Moment Calculation                       ... on
Quadrupole Moment Calculation                   ... off
Polarizability Calculation                      ... off
GBWName                                         ... START_a007_b069.gbw
Electron density                                ... START_a007_b069.scfp
The origin for moment calculation is the CENTER OF MASS  = (-0.061543,  0.003064 -0.000147)

-------------
DIPOLE MOMENT
-------------
                                X             Y             Z
Electronic contribution:     47.57175      56.66689       0.83674
Nuclear contribution   :    -84.49406     -89.56490       1.74836
                        -----------------------------------------
Total Dipole Moment    :    -36.92231     -32.89802       2.58510
                        -----------------------------------------
Magnitude (a.u.)       :     49.51989
Magnitude (Debye)      :    125.86955



--------------------
Rotational spectrum 
--------------------
 
Rotational constants in cm-1:     0.008853     0.008042     0.005113 
Rotational constants in MHz :   265.419644   241.080291   153.270549 

 Dipole components along the rotational axes: 
x,y,z [a.u.] :   -47.794911   -12.945195    -0.536354 
x,y,z [Debye]:  -121.485009   -32.904071    -1.363303 

 

Timings for individual modules:

Sum of individual times         ...        2.711 sec (=   0.045 min)
GTO integral calculation        ...        0.585 sec (=   0.010 min)  21.6 %
SCF iterations                  ...        2.126 sec (=   0.035 min)  78.4 %
                             ****ORCA TERMINATED NORMALLY****
TOTAL RUN TIME: 0 days 0 hours 0 minutes 2 seconds 841 msec
