
                                 *****************
                                 * O   R   C   A *
                                 *****************

                                            #,                                       
                                            ###                                      
                                            ####                                     
                                            #####                                    
                                            ######                                   
                                           ########,                                 
                                     ,,################,,,,,                         
                               ,,#################################,,                 
                          ,,##########################################,,             
                       ,#########################################, ''#####,          
                    ,#############################################,,   '####,        
                  ,##################################################,,,,####,       
                ,###########''''           ''''###############################       
              ,#####''   ,,,,##########,,,,          '''####'''          '####       
            ,##' ,,,,###########################,,,                        '##       
           ' ,,###''''                  '''############,,,                           
         ,,##''                                '''############,,,,        ,,,,,,###''
      ,#''                                            '''#######################'''  
     '                                                          ''''####''''         
             ,#######,   #######,   ,#######,      ##                                
            ,#'     '#,  ##    ##  ,#'     '#,    #''#        ######   ,####,        
            ##       ##  ##   ,#'  ##            #'  '#       #        #'  '#        
            ##       ##  #######   ##           ,######,      #####,   #    #        
            '#,     ,#'  ##    ##  '#,     ,#' ,#      #,         ##   #,  ,#        
             '#######'   ##     ##  '#######'  #'      '#     #####' # '####'        



                  #######################################################
                  #                        -***-                        #
                  #          Department of theory and spectroscopy      #
                  #    Directorship and core code : Frank Neese         #
                  #        Max Planck Institute fuer Kohlenforschung    #
                  #                Kaiser Wilhelm Platz 1               #
                  #                 D-45470 Muelheim/Ruhr               #
                  #                      Germany                        #
                  #                                                     #
                  #                  All rights reserved                #
                  #                        -***-                        #
                  #######################################################


                         Program Version 5.0.2 -  RELEASE  -


 With contributions from (in alphabetic order):
   Daniel Aravena         : Magnetic Suceptibility
   Michael Atanasov       : Ab Initio Ligand Field Theory (pilot matlab implementation)
   Alexander A. Auer      : GIAO ZORA, VPT2 properties, NMR spectrum
   Ute Becker             : Parallelization
   Giovanni Bistoni       : ED, misc. LED, open-shell LED, HFLD
   Martin Brehm           : Molecular dynamics
   Dmytro Bykov           : SCF Hessian
   Vijay G. Chilkuri      : MRCI spin determinant printing, contributions to CSF-ICE
   Dipayan Datta          : RHF DLPNO-CCSD density
   Achintya Kumar Dutta   : EOM-CC, STEOM-CC
   Dmitry Ganyushin       : Spin-Orbit,Spin-Spin,Magnetic field MRCI
   Miquel Garcia          : C-PCM and meta-GGA Hessian, CC/C-PCM, Gaussian charge scheme
   Yang Guo               : DLPNO-NEVPT2, F12-NEVPT2, CIM, IAO-localization
   Andreas Hansen         : Spin unrestricted coupled pair/coupled cluster methods
   Benjamin Helmich-Paris : MC-RPA, TRAH-SCF, COSX integrals
   Lee Huntington         : MR-EOM, pCC
   Robert Izsak           : Overlap fitted RIJCOSX, COSX-SCS-MP3, EOM
   Marcus Kettner         : VPT2
   Christian Kollmar      : KDIIS, OOCD, Brueckner-CCSD(T), CCSD density, CASPT2, CASPT2-K
   Simone Kossmann        : Meta GGA functionals, TD-DFT gradient, OOMP2, MP2 Hessian
   Martin Krupicka        : Initial AUTO-CI
   Lucas Lang             : DCDCAS
   Marvin Lechner         : AUTO-CI (C++ implementation), FIC-MRCC
   Dagmar Lenk            : GEPOL surface, SMD
   Dimitrios Liakos       : Extrapolation schemes; Compound Job, initial MDCI parallelization
   Dimitrios Manganas     : Further ROCIS development; embedding schemes
   Dimitrios Pantazis     : SARC Basis sets
   Anastasios Papadopoulos: AUTO-CI, single reference methods and gradients
   Taras Petrenko         : DFT Hessian,TD-DFT gradient, ASA, ECA, R-Raman, ABS, FL, XAS/XES, NRVS
   Peter Pinski           : DLPNO-MP2, DLPNO-MP2 Gradient
   Christoph Reimann      : Effective Core Potentials
   Marius Retegan         : Local ZFS, SOC
   Christoph Riplinger    : Optimizer, TS searches, QM/MM, DLPNO-CCSD(T), (RO)-DLPNO pert. Triples
   Tobias Risthaus        : Range-separated hybrids, TD-DFT gradient, RPA, STAB
   Michael Roemelt        : Original ROCIS implementation
   Masaaki Saitow         : Open-shell DLPNO-CCSD energy and density
   Barbara Sandhoefer     : DKH picture change effects
   Avijit Sen             : IP-ROCIS
   Kantharuban Sivalingam : CASSCF convergence, NEVPT2, FIC-MRCI
   Bernardo de Souza      : ESD, SOC TD-DFT
   Georgi Stoychev        : AutoAux, RI-MP2 NMR, DLPNO-MP2 response
   Willem Van den Heuvel  : Paramagnetic NMR
   Boris Wezisla          : Elementary symmetry handling
   Frank Wennmohs         : Technical directorship


 We gratefully acknowledge several colleagues who have allowed us to
 interface, adapt or use parts of their codes:
   Stefan Grimme, W. Hujo, H. Kruse, P. Pracht,  : VdW corrections, initial TS optimization,
                  C. Bannwarth, S. Ehlert          DFT functionals, gCP, sTDA/sTD-DF
   Ed Valeev, F. Pavosevic, A. Kumar             : LibInt (2-el integral package), F12 methods
   Garnet Chan, S. Sharma, J. Yang, R. Olivares  : DMRG
   Ulf Ekstrom                                   : XCFun DFT Library
   Mihaly Kallay                                 : mrcc  (arbitrary order and MRCC methods)
   Jiri Pittner, Ondrej Demel                    : Mk-CCSD
   Frank Weinhold                                : gennbo (NPA and NBO analysis)
   Christopher J. Cramer and Donald G. Truhlar   : smd solvation model
   Lars Goerigk                                  : TD-DFT with DH, B97 family of functionals
   V. Asgeirsson, H. Jonsson                     : NEB implementation
   FAccTs GmbH                                   : IRC, NEB, NEB-TS, DLPNO-Multilevel, CI-OPT
                                                   MM, QMMM, 2- and 3-layer-ONIOM, Crystal-QMMM,
                                                   LR-CPCM, SF, NACMEs, symmetry and pop. for TD-DFT,
                                                   nearIR, NL-DFT gradient (VV10), updates on ESD,
                                                   ML-optimized integration grids
   S Lehtola, MJT Oliveira, MAL Marques          : LibXC Library
   Liviu Ungur et al                             : ANISO software


 Your calculation uses the libint2 library for the computation of 2-el integrals
 For citations please refer to: http://libint.valeyev.net

 Your ORCA version has been built with support for libXC version: 5.1.0
 For citations please refer to: https://tddft.org/programs/libxc/

 This ORCA versions uses:
   CBLAS   interface :  Fast vector & matrix operations
   LAPACKE interface :  Fast linear algebra routines
   SCALAPACK package :  Parallel linear algebra routines
   Shared memory     :  Shared parallel matrices
   BLAS/LAPACK       :  OpenBLAS 0.3.15  USE64BITINT DYNAMIC_ARCH NO_AFFINITY SkylakeX SINGLE_THREADED
        Core in use  :  SkylakeX
   Copyright (c) 2011-2014, The OpenBLAS Project


================================================================================

----- Orbital basis set information -----
Your calculation utilizes the basis: def2-SVP
   F. Weigend and R. Ahlrichs, Phys. Chem. Chem. Phys. 7, 3297 (2005).

================================================================================
                                        WARNINGS
                       Please study these warnings very carefully!
================================================================================


INFO   : the flag for use of the SHARK integral package has been found!

================================================================================
                                       INPUT FILE
================================================================================
NAME = START_a001_b001.inp
|  1> !HF  DEF2-SVP 
|  2> %maxcore 500
|  3> %pal nprocs = 1  end
|  4> %scf
|  5> MAXITER 10
|  6> end
|  7> %output XYZFILE 1 end
|  8> * xyz 0 1
|  9> C 3.483362 -5.030919 3.569062
| 10> O 2.879155 -5.012189 2.305074
| 11> C 2.455578 -3.825623 1.814576
| 12> C 1.878874 -3.850852 0.545653
| 13> C 1.427451 -2.679253 -0.031044
| 14> C 2.566665 -2.609779 2.476314
| 15> C 2.096482 -1.446731 1.871336
| 16> C 1.505805 -1.433486 0.611361
| 17> B 0.944748 -0.090862 -0.109869
| 18> C 1.49158 1.281488 0.563085
| 19> C 1.075618 1.680586 1.842749
| 20> C 1.517016 2.840972 2.44865
| 21> C 2.417893 3.673608 1.786221
| 22> O 2.79719 4.792925 2.444416
| 23> C 3.725111 5.642275 1.82753
| 24> C 2.851752 3.314232 0.517662
| 25> C 2.382611 2.141426 -0.069614
| 26> C 1.190424 -0.172917 -1.710319
| 27> C 0.215929 -0.049632 -2.703378
| 28> C 0.504387 -0.147325 -4.05529
| 29> C 1.808237 -0.377502 -4.477955
| 30> O 2.0049 -0.464086 -5.814114
| 31> C 3.304456 -0.704255 -6.278215
| 32> C 2.807614 -0.512071 -3.519289
| 33> C 2.48552 -0.416183 -2.17198
| 34> C -3.489421 0.168318 0.387067
| 35> N -4.844761 0.258092 0.49443
| 36> C -5.486785 1.554078 0.656349
| 37> C -6.952786 1.490421 0.268567
| 38> O -7.629234 0.475387 0.955447
| 39> C -7.064239 -0.766842 0.64441
| 40> C -5.60304 -0.849345 1.051832
| 41> C -2.690578 1.251862 -0.028975
| 42> C -1.3343 1.108374 -0.150151
| 43> N -0.685936 -0.031718 0.117277
| 44> C -1.419028 -1.067727 0.522341
| 45> C -2.783771 -1.014484 0.671227
| 46> H 2.809111 -4.683806 4.359362
| 47> H 3.748543 -6.066386 3.773471
| 48> H 4.395675 -4.426215 3.604756
| 49> H 1.806408 -4.793319 0.017024
| 50> H 1.008804 -2.732545 -1.030253
| 51> H 3.024707 -2.539462 3.454215
| 52> H 2.224102 -0.517084 2.411659
| 53> H 0.371746 1.063827 2.393565
| 54> H 1.17197 3.116382 3.437676
| 55> H 3.907263 6.462263 2.519459
| 56> H 3.349135 6.060225 0.887438
| 57> H 4.677741 5.14139 1.62518
| 58> H 3.545247 3.932307 -0.037457
| 59> H 2.729199 1.907347 -1.068573
| 60> H -0.822886 0.115171 -2.439578
| 61> H -0.281075 -0.053048 -4.79495
| 62> H 3.247935 -0.737443 -7.36458
| 63> H 3.705309 -1.659858 -5.923424
| 64> H 4.003392 0.089274 -5.992492
| 65> H 3.835689 -0.703815 -3.797458
| 66> H 3.283197 -0.554023 -1.450089
| 67> H -5.013387 2.295722 0.01702
| 68> H -5.385691 1.900748 1.69278
| 69> H -7.432485 2.437809 0.517465
| 70> H -7.035206 1.346835 -0.818903
| 71> H -7.150286 -0.974439 -0.432412
| 72> H -7.629809 -1.532515 1.176835
| 73> H -5.513202 -0.872091 2.145947
| 74> H -5.216436 -1.792707 0.668603
| 75> H -3.10519 2.21721 -0.271296
| 76> H -0.719405 1.937239 -0.47096
| 77> H -0.876736 -1.973843 0.750926
| 78> H -3.271669 -1.905331 1.032854
| 79> *
| 80> 
| 81>                          ****END OF INPUT****
================================================================================

                       ****************************
                       * Single Point Calculation *
                       ****************************

---------------------------------
CARTESIAN COORDINATES (ANGSTROEM)
---------------------------------
  C      3.483362   -5.030919    3.569062
  O      2.879155   -5.012189    2.305074
  C      2.455578   -3.825623    1.814576
  C      1.878874   -3.850852    0.545653
  C      1.427451   -2.679253   -0.031044
  C      2.566665   -2.609779    2.476314
  C      2.096482   -1.446731    1.871336
  C      1.505805   -1.433486    0.611361
  B      0.944748   -0.090862   -0.109869
  C      1.491580    1.281488    0.563085
  C      1.075618    1.680586    1.842749
  C      1.517016    2.840972    2.448650
  C      2.417893    3.673608    1.786221
  O      2.797190    4.792925    2.444416
  C      3.725111    5.642275    1.827530
  C      2.851752    3.314232    0.517662
  C      2.382611    2.141426   -0.069614
  C      1.190424   -0.172917   -1.710319
  C      0.215929   -0.049632   -2.703378
  C      0.504387   -0.147325   -4.055290
  C      1.808237   -0.377502   -4.477955
  O      2.004900   -0.464086   -5.814114
  C      3.304456   -0.704255   -6.278215
  C      2.807614   -0.512071   -3.519289
  C      2.485520   -0.416183   -2.171980
  C     -3.489421    0.168318    0.387067
  N     -4.844761    0.258092    0.494430
  C     -5.486785    1.554078    0.656349
  C     -6.952786    1.490421    0.268567
  O     -7.629234    0.475387    0.955447
  C     -7.064239   -0.766842    0.644410
  C     -5.603040   -0.849345    1.051832
  C     -2.690578    1.251862   -0.028975
  C     -1.334300    1.108374   -0.150151
  N     -0.685936   -0.031718    0.117277
  C     -1.419028   -1.067727    0.522341
  C     -2.783771   -1.014484    0.671227
  H      2.809111   -4.683806    4.359362
  H      3.748543   -6.066386    3.773471
  H      4.395675   -4.426215    3.604756
  H      1.806408   -4.793319    0.017024
  H      1.008804   -2.732545   -1.030253
  H      3.024707   -2.539462    3.454215
  H      2.224102   -0.517084    2.411659
  H      0.371746    1.063827    2.393565
  H      1.171970    3.116382    3.437676
  H      3.907263    6.462263    2.519459
  H      3.349135    6.060225    0.887438
  H      4.677741    5.141390    1.625180
  H      3.545247    3.932307   -0.037457
  H      2.729199    1.907347   -1.068573
  H     -0.822886    0.115171   -2.439578
  H     -0.281075   -0.053048   -4.794950
  H      3.247935   -0.737443   -7.364580
  H      3.705309   -1.659858   -5.923424
  H      4.003392    0.089274   -5.992492
  H      3.835689   -0.703815   -3.797458
  H      3.283197   -0.554023   -1.450089
  H     -5.013387    2.295722    0.017020
  H     -5.385691    1.900748    1.692780
  H     -7.432485    2.437809    0.517465
  H     -7.035206    1.346835   -0.818903
  H     -7.150286   -0.974439   -0.432412
  H     -7.629809   -1.532515    1.176835
  H     -5.513202   -0.872091    2.145947
  H     -5.216436   -1.792707    0.668603
  H     -3.105190    2.217210   -0.271296
  H     -0.719405    1.937239   -0.470960
  H     -0.876736   -1.973843    0.750926
  H     -3.271669   -1.905331    1.032854

----------------------------
CARTESIAN COORDINATES (A.U.)
----------------------------
  NO LB      ZA    FRAG     MASS         X           Y           Z
   0 C     6.0000    0    12.011    6.582600   -9.507059    6.744550
   1 O     8.0000    0    15.999    5.440814   -9.471665    4.355959
   2 C     6.0000    0    12.011    4.640370   -7.229380    3.429052
   3 C     6.0000    0    12.011    3.550557   -7.277056    1.031135
   4 C     6.0000    0    12.011    2.697491   -5.063054   -0.058665
   5 C     6.0000    0    12.011    4.850294   -4.931768    4.679555
   6 C     6.0000    0    12.011    3.961777   -2.733925    3.536313
   7 C     6.0000    0    12.011    2.845559   -2.708896    1.155305
   8 B     5.0000    0    10.810    1.785315   -0.171704   -0.207622
   9 C     6.0000    0    12.011    2.818678    2.421661    1.064076
  10 C     6.0000    0    12.011    2.032623    3.175847    3.482291
  11 C     6.0000    0    12.011    2.866745    5.368659    4.627278
  12 C     6.0000    0    12.011    4.569156    6.942113    3.375469
  13 O     8.0000    0    15.999    5.285923    9.057316    4.619277
  14 C     6.0000    0    12.011    7.039440   10.662355    3.453531
  15 C     6.0000    0    12.011    5.389030    6.262991    0.978239
  16 C     6.0000    0    12.011    4.502482    4.046709   -0.131551
  17 C     6.0000    0    12.011    2.249575   -0.326766   -3.232035
  18 C     6.0000    0    12.011    0.408047   -0.093791   -5.108644
  19 C     6.0000    0    12.011    0.953153   -0.278404   -7.663387
  20 C     6.0000    0    12.011    3.417073   -0.713375   -8.462109
  21 O     8.0000    0    15.999    3.788712   -0.876995  -10.987083
  22 C     6.0000    0    12.011    6.244517   -1.330849  -11.864107
  23 C     6.0000    0    12.011    5.305622   -0.967674   -6.650492
  24 C     6.0000    0    12.011    4.696952   -0.786472   -4.104447
  25 C     6.0000    0    12.011   -6.594050    0.318075    0.731451
  26 N     7.0000    0    14.007   -9.155271    0.487723    0.934337
  27 C     6.0000    0    12.011  -10.368521    2.936782    1.240320
  28 C     6.0000    0    12.011  -13.138861    2.816488    0.507518
  29 O     8.0000    0    15.999  -14.417163    0.898351    1.805533
  30 C     6.0000    0    12.011  -13.349477   -1.449121    1.217758
  31 C     6.0000    0    12.011  -10.588211   -1.605029    1.987674
  32 C     6.0000    0    12.011   -5.084456    2.365676   -0.054755
  33 C     6.0000    0    12.011   -2.521462    2.094523   -0.283744
  34 N     7.0000    0    14.007   -1.296231   -0.059938    0.221621
  35 C     6.0000    0    12.011   -2.681574   -2.017712    0.987081
  36 C     6.0000    0    12.011   -5.260565   -1.917097    1.268435
  37 H     1.0000    0     1.008    5.308450   -8.851111    8.238000
  38 H     1.0000    0     1.008    7.083720  -11.463808    7.130827
  39 H     1.0000    0     1.008    8.306622   -8.364334    6.812002
  40 H     1.0000    0     1.008    3.413616   -9.058060    0.032171
  41 H     1.0000    0     1.008    1.906363   -5.163762   -1.946896
  42 H     1.0000    0     1.008    5.715868   -4.798888    6.527520
  43 H     1.0000    0     1.008    4.202944   -0.977147    4.557375
  44 H     1.0000    0     1.008    0.702498    2.010342    4.523182
  45 H     1.0000    0     1.008    2.214702    5.889109    6.496266
  46 H     1.0000    0     1.008    7.383657   12.211907    4.761088
  47 H     1.0000    0     1.008    6.328948   11.452166    1.677015
  48 H     1.0000    0     1.008    8.839649    9.715819    3.071145
  49 H     1.0000    0     1.008    6.699546    7.430983   -0.070783
  50 H     1.0000    0     1.008    5.157439    3.604363   -2.019310
  51 H     1.0000    0     1.008   -1.555029    0.217642   -4.610134
  52 H     1.0000    0     1.008   -0.531155   -0.100246   -9.061142
  53 H     1.0000    0     1.008    6.137708   -1.393565  -13.917039
  54 H     1.0000    0     1.008    7.002019   -3.136677  -11.193649
  55 H     1.0000    0     1.008    7.565314    0.168703  -11.324169
  56 H     1.0000    0     1.008    7.248402   -1.330018   -7.176156
  57 H     1.0000    0     1.008    6.204343   -1.046952   -2.740271
  58 H     1.0000    0     1.008   -9.473928    4.338286    0.032163
  59 H     1.0000    0     1.008  -10.177481    3.591893    3.198891
  60 H     1.0000    0     1.008  -14.045361    4.606791    0.977867
  61 H     1.0000    0     1.008  -13.294613    2.545149   -1.547502
  62 H     1.0000    0     1.008  -13.512082   -1.841423   -0.817140
  63 H     1.0000    0     1.008  -14.418249   -2.896034    2.223896
  64 H     1.0000    0     1.008  -10.418442   -1.648013    4.055252
  65 H     1.0000    0     1.008   -9.857635   -3.387725    1.263477
  66 H     1.0000    0     1.008   -5.867959    4.189920   -0.512675
  67 H     1.0000    0     1.008   -1.359478    3.660851   -0.889985
  68 H     1.0000    0     1.008   -1.656791   -3.730023    1.419044
  69 H     1.0000    0     1.008   -6.182558   -3.600554    1.951811

--------------------------------
INTERNAL COORDINATES (ANGSTROEM)
--------------------------------
 C      0   0   0     0.000000000000     0.00000000     0.00000000
 O      1   0   0     1.401100487436     0.00000000     0.00000000
 C      2   1   0     1.352015027760   118.30228908     0.00000000
 C      3   2   1     1.394055087142   116.35608693   179.06526064
 C      4   3   2     1.381667967183   119.98291776   180.39190723
 C      3   2   1     1.388709521300   124.78132129   359.60982627
 C      6   3   2     1.392749469315   119.81049088   179.86632948
 C      7   6   3     1.391621984944   122.99221401     0.08115010
 B      8   7   6     1.624068002125   123.81955239   179.71039308
 C      9   8   7     1.623341259514   113.47921495    16.12876407
 C     10   9   8     1.403511151343   121.23336600   290.45082436
 C     11  10   9     1.381464398818   122.95954647   180.05311463
 C     12  11  10     1.394157185423   119.98175475   359.90432359
 O     13  12  11     1.352759187262   116.36989974   179.73951001
 C     14  13  12     1.401064288938   118.23401842   178.56303953
 C     13  12  11     1.388029782727   118.78978536     0.17684619
 C     10   9   8     1.390588951274   123.36800446   110.86229838
 C      9   8   7     1.621274166358   110.13264915   144.80006675
 C     18   9   8     1.396784118513   126.27362771   124.25617946
 C     19  18   9     1.385791469074   122.82906037   180.77142845
 C     20  19  18     1.389838830964   120.24023241     0.00000000
 O     21  20  19     1.353327010706   116.56264724   179.78643276
 C     22  21  20     1.400684362695   118.22478035   180.41223383
 C     21  20  19     1.391367565903   118.70583812     0.26910449
 C     24  21  20     1.388589426310   119.68557060     0.07184049
 C      9   8   7     4.469449001953   109.95615652   260.34087553
 N     26   9   8     1.362546403043   178.08395210   225.56241849
 C     27  26   9     1.455332364559   120.41497980   278.56720858
 C     28  27  26     1.517756905823   111.12069701   159.90403156
 O     29  28  27     1.399885728286   111.82578261    53.76252544
 C     30  29  28     1.399677196297   109.84198642   298.90634842
 C     27  26  28     1.453306829411   119.93494311   208.24319454
 C     26   9   8     1.409009824078    56.58401042   165.32178329
 C     33  26   9     1.369219647246   120.47334692   359.43194616
 N     34  33  26     1.338545247701   123.46162345   359.55128664
 C     35  34  33     1.332221968232   117.16552548   359.93399951
 C     36  35  34     1.373872379115   123.32817771     0.10293855
 H      1   2   3     1.095297190615   112.40978707    61.37333505
 H      1   2   3     1.088253605614   106.69353943   180.09380336
 H      1   2   3     1.095105474017   112.41293246   298.83553358
 H      4   3   2     1.083025386076   119.19084285   359.37503675
 H      5   4   3     1.084676898230   117.96584422   178.37846581
 H      6   3   2     1.082144777770   121.42349534     0.65066571
 H      7   6   3     1.082810857601   117.41351301   181.42688703
 H     11  10   9     1.085921600449   119.54285050   359.74502082
 H     12  11  10     1.083088103015   120.81730778   179.91326070
 H     15  14  13     1.088267160347   106.71923686   181.01026290
 H     15  14  13     1.095359814645   112.44936706    62.27924474
 H     15  14  13     1.095141645005   112.34608999   299.74666886
 H     16  13  12     1.082177954318   121.41576950   179.58405494
 H     17  10   9     1.082975209165   119.41221123     0.93196951
 H     19  18   9     1.084383268514   120.58460009   359.81565524
 H     20  19  18     1.083021524150   120.60805018   179.55433321
 H     23  22  21     1.088340470629   106.72523549   180.01518829
 H     23  22  21     1.095325008798   112.44598954    61.27525040
 H     23  22  21     1.095370913739   112.41844591   298.73012567
 H     24  21  20     1.082165403126   121.49309891   179.26229138
 H     25  24  21     1.084626699750   117.80174609   178.28845184
 H     28  27  26     1.087604275176   110.47645136    40.81250391
 H     28  27  26     1.097537836932   110.22499325   282.23002477
 H     29  28  27     1.090690316978   109.27355161   173.00245496
 H     29  28  27     1.100000453044   109.29507552   290.77206367
 H     31  30  29     1.100021009028   110.69849760   298.93016656
 H     31  30  29     1.090688291151   107.77300566   181.33043950
 H     32  27  26     1.098032731746   110.80988411    77.05113595
 H     32  27  26     1.089155169065   109.86800685   318.18885441
 H     33  26   9     1.078201900707   122.47044029   178.98464687
 H     34  33  26     1.080755043352   120.62860471   179.87703821
 H     36  35  34     1.080452646322   116.12377434   181.08587487
 H     37  36  35     1.078159043436   116.99090345   181.73178018

---------------------------
INTERNAL COORDINATES (A.U.)
---------------------------
 C      0   0   0     0.000000000000     0.00000000     0.00000000
 O      1   0   0     2.647696207357     0.00000000     0.00000000
 C      2   1   0     2.554938131412   118.30228908     0.00000000
 C      3   2   1     2.634382330298   116.35608693   179.06526064
 C      4   3   2     2.610974065987   119.98291776   180.39190723
 C      3   2   1     2.624280674826   124.78132129   359.60982627
 C      6   3   2     2.631915070169   119.81049088   179.86632948
 C      7   6   3     2.629784433488   122.99221401     0.08115010
 B      8   7   6     3.069043746880   123.81955239   179.71039308
 C      9   8   7     3.067670402376   113.47921495    16.12876407
 C     10   9   8     2.652251701943   121.23336600   290.45082436
 C     11  10   9     2.610589377528   122.95954647   180.05311463
 C     12  11  10     2.634575268088   119.98175475   359.90432359
 O     13  12  11     2.556344389072   116.36989974   179.73951001
 C     14  13  12     2.647627802110   118.23401842   178.56303953
 C     13  12  11     2.622996155081   118.78978536     0.17684619
 C     10   9   8     2.627832282765   123.36800446   110.86229838
 C      9   8   7     3.063764162419   110.13264915   144.80006675
 C     18   9   8     2.639539452201   126.27362771   124.25617946
 C     19  18   9     2.618766355273   122.82906037   180.77142845
 C     20  19  18     2.626414760810   120.24023241     0.00000000
 O     21  20  19     2.557417419872   116.56264724   179.78643276
 C     22  21  20     2.646909845559   118.22478035   180.41223383
 C     21  20  19     2.629303651177   118.70583812     0.26910449
 C     24  21  20     2.624053728185   119.68557060     0.07184049
 C      9   8   7     8.446034583218   109.95615652   260.34087553
 N     26   9   8     2.574839546510   178.08395210   225.56241849
 C     27  26   9     2.750179602849   120.41497980   278.56720858
 C     28  27  26     2.868144889874   111.12069701   159.90403156
 O     29  28  27     2.645400645246   111.82578261    53.76252544
 C     30  29  28     2.645006576897   109.84198642   298.90634842
 C     27  26  28     2.746351896145   119.93494311   208.24319454
 C     26   9   8     2.662642687512    56.58401042   165.32178329
 C     33  26   9     2.587450150479   120.47334692   359.43194616
 N     34  33  26     2.529483936017   123.46162345   359.55128664
 C     35  34  33     2.517534669553   117.16552548   359.93399951
 C     36  35  34     2.596242539485   123.32817771     0.10293855
 H      1   2   3     2.069811725516   112.40978707    61.37333505
 H      1   2   3     2.056501278862   106.69353943   180.09380336
 H      1   2   3     2.069449433649   112.41293246   298.83553358
 H      4   3   2     2.046621375769   119.19084285   359.37503675
 H      5   4   3     2.049742281446   117.96584422   178.37846581
 H      6   3   2     2.044957267238   121.42349534     0.65066571
 H      7   6   3     2.046215975702   117.41351301   181.42688703
 H     11  10   9     2.052094427757   119.54285050   359.74502082
 H     12  11  10     2.046739893606   120.81730778   179.91326070
 H     15  14  13     2.056526893595   106.71923686   181.01026290
 H     15  14  13     2.069930067783   112.44936706    62.27924474
 H     15  14  13     2.069517786912   112.34608999   299.74666886
 H     16  13  12     2.045019961827   121.41576950   179.58405494
 H     17  10   9     2.046526555148   119.41221123     0.93196951
 H     19  18   9     2.049187401699   120.58460009   359.81565524
 H     20  19  18     2.046614077786   120.60805018   179.55433321
 H     23  22  21     2.056665429953   106.72523549   180.01518829
 H     23  22  21     2.069864294264   112.44598954    61.27525040
 H     23  22  21     2.069951042030   112.41844591   298.73012567
 H     24  21  20     2.044996243512   121.49309891   179.26229138
 H     25  24  21     2.049647420066   117.80174609   178.28845184
 H     28  27  26     2.055274222164   110.47645136    40.81250391
 H     28  27  26     2.074045933417   110.22499325   282.23002477
 H     29  28  27     2.061105996008   109.27355161   173.00245496
 H     29  28  27     2.078699603442   109.29507552   290.77206367
 H     31  30  29     2.078738448622   110.69849760   298.93016656
 H     31  30  29     2.061102167750   107.77300566   181.33043950
 H     32  27  26     2.074981149081   110.80988411    77.05113595
 H     32  27  26     2.058204986878   109.86800685   318.18885441
 H     33  26   9     2.037506309410   122.47044029   178.98464687
 H     34  33  26     2.042331049790   120.62860471   179.87703821
 H     36  35  34     2.041759602220   116.12377434   181.08587487
 H     37  36  35     2.037425320904   116.99090345   181.73178018

---------------------
BASIS SET INFORMATION
---------------------
There are 5 groups of distinct atoms

 Group   1 Type C   : 7s4p1d contracted to 3s2p1d pattern {511/31/1}
 Group   2 Type O   : 7s4p1d contracted to 3s2p1d pattern {511/31/1}
 Group   3 Type B   : 7s4p1d contracted to 3s2p1d pattern {511/31/1}
 Group   4 Type N   : 7s4p1d contracted to 3s2p1d pattern {511/31/1}
 Group   5 Type H   : 4s1p contracted to 2s1p pattern {31/1}

Atom   0C    basis set group =>   1
Atom   1O    basis set group =>   2
Atom   2C    basis set group =>   1
Atom   3C    basis set group =>   1
Atom   4C    basis set group =>   1
Atom   5C    basis set group =>   1
Atom   6C    basis set group =>   1
Atom   7C    basis set group =>   1
Atom   8B    basis set group =>   3
Atom   9C    basis set group =>   1
Atom  10C    basis set group =>   1
Atom  11C    basis set group =>   1
Atom  12C    basis set group =>   1
Atom  13O    basis set group =>   2
Atom  14C    basis set group =>   1
Atom  15C    basis set group =>   1
Atom  16C    basis set group =>   1
Atom  17C    basis set group =>   1
Atom  18C    basis set group =>   1
Atom  19C    basis set group =>   1
Atom  20C    basis set group =>   1
Atom  21O    basis set group =>   2
Atom  22C    basis set group =>   1
Atom  23C    basis set group =>   1
Atom  24C    basis set group =>   1
Atom  25C    basis set group =>   1
Atom  26N    basis set group =>   4
Atom  27C    basis set group =>   1
Atom  28C    basis set group =>   1
Atom  29O    basis set group =>   2
Atom  30C    basis set group =>   1
Atom  31C    basis set group =>   1
Atom  32C    basis set group =>   1
Atom  33C    basis set group =>   1
Atom  34N    basis set group =>   4
Atom  35C    basis set group =>   1
Atom  36C    basis set group =>   1
Atom  37H    basis set group =>   5
Atom  38H    basis set group =>   5
Atom  39H    basis set group =>   5
Atom  40H    basis set group =>   5
Atom  41H    basis set group =>   5
Atom  42H    basis set group =>   5
Atom  43H    basis set group =>   5
Atom  44H    basis set group =>   5
Atom  45H    basis set group =>   5
Atom  46H    basis set group =>   5
Atom  47H    basis set group =>   5
Atom  48H    basis set group =>   5
Atom  49H    basis set group =>   5
Atom  50H    basis set group =>   5
Atom  51H    basis set group =>   5
Atom  52H    basis set group =>   5
Atom  53H    basis set group =>   5
Atom  54H    basis set group =>   5
Atom  55H    basis set group =>   5
Atom  56H    basis set group =>   5
Atom  57H    basis set group =>   5
Atom  58H    basis set group =>   5
Atom  59H    basis set group =>   5
Atom  60H    basis set group =>   5
Atom  61H    basis set group =>   5
Atom  62H    basis set group =>   5
Atom  63H    basis set group =>   5
Atom  64H    basis set group =>   5
Atom  65H    basis set group =>   5
Atom  66H    basis set group =>   5
Atom  67H    basis set group =>   5
Atom  68H    basis set group =>   5
Atom  69H    basis set group =>   5
------------------------------------------------------------------------------
                           ORCA GTO INTEGRAL CALCULATION
------------------------------------------------------------------------------
------------------------------------------------------------------------------
                   ___                                                        
                  /   \      - P O W E R E D   B Y -                         
                 /     \                                                     
                 |  |  |   _    _      __       _____    __    __             
                 |  |  |  | |  | |    /  \     |  _  \  |  |  /  |          
                  \  \/   | |  | |   /    \    | | | |  |  | /  /          
                 / \  \   | |__| |  /  /\  \   | |_| |  |  |/  /          
                |  |  |   |  __  | /  /__\  \  |    /   |      \           
                |  |  |   | |  | | |   __   |  |    \   |  |\   \          
                \     /   | |  | | |  |  |  |  | |\  \  |  | \   \       
                 \___/    |_|  |_| |__|  |__|  |_| \__\ |__|  \__/        
                                                                              
                      - O R C A' S   B I G   F R I E N D -                    
                                      &                                       
                       - I N T E G R A L  F E E D E R -                       
                                                                              
 v1 FN, 2020, v2 2021                                                         
------------------------------------------------------------------------------


Reading SHARK input file START_a001_b001.SHARKINP.tmp ... ok
----------------------
SHARK INTEGRAL PACKAGE
----------------------

Number of atoms                             ...     70
Number of basis functions                   ...    683
Number of shells                            ...    321
Maximum angular momentum                    ...      2
Integral batch strategy                     ... SHARK/LIBINT Hybrid
RI-J (if used) integral strategy            ... SPLIT-RIJ (Revised 2003 algorithm where possible)
Printlevel                                  ...      1
Contraction scheme used                     ... SEGMENTED contraction
Coulomb Range Separation                    ... NOT USED
Exchange Range Separation                   ... NOT USED
Finite Nucleus Model                        ... NOT USED
Auxiliary Coulomb fitting basis             ... NOT available
Auxiliary J/K fitting basis                 ... NOT available
Auxiliary Correlation fitting basis         ... NOT available
Auxiliary 'external' fitting basis          ... NOT available
Integral threshold                          ...     1.000000e-10
Primitive cut-off                           ...     1.000000e-11
Primitive pair pre-selection threshold      ...     1.000000e-11

Calculating pre-screening integrals         ... done (  0.2 sec) Dimension = 321
Organizing shell pair data                  ... done (  0.1 sec)
Shell pair information
Total number of shell pairs                 ...     51681
Shell pairs after pre-screening             ...     27363
Total number of primitive shell pairs       ...    186325
Primitive shell pairs kept                  ...     59582
          la=0 lb=0:   8669 shell pairs
          la=1 lb=0:  10347 shell pairs
          la=1 lb=1:   3129 shell pairs
          la=2 lb=0:   3113 shell pairs
          la=2 lb=1:   1846 shell pairs
          la=2 lb=2:    259 shell pairs

Calculating one electron integrals          ... done (  0.3 sec)
Calculating Nuclear repulsion               ... done (  0.0 sec) ENN=   3865.148258769208 Eh

SHARK setup successfully completed in   0.9 seconds

Maximum memory used throughout the entire GTOINT-calculation: 149.2 MB
-------------------------------------------------------------------------------
                                 ORCA SCF
-------------------------------------------------------------------------------

------------
SCF SETTINGS
------------
Hamiltonian:
 Ab initio Hamiltonian  Method          .... Hartree-Fock(GTOs)


General Settings:
 Integral files         IntName         .... START_a001_b001
 Hartree-Fock type      HFTyp           .... RHF
 Total Charge           Charge          ....    0
 Multiplicity           Mult            ....    1
 Number of Electrons    NEL             ....  264
 Basis Dimension        Dim             ....  683
 Nuclear Repulsion      ENuc            ....   3865.1482587692 Eh

Convergence Acceleration:
 DIIS                   CNVDIIS         .... on
   Start iteration      DIISMaxIt       ....    12
   Startup error        DIISStart       ....  0.200000
   # of expansion vecs  DIISMaxEq       ....     5
   Bias factor          DIISBfac        ....   1.050
   Max. coefficient     DIISMaxC        ....  10.000
 Trust-Rad. Augm. Hess. CNVTRAH         .... auto
   Auto Start mean grad. ratio tolernc. ....  1.125000
   Auto Start start iteration           ....    20
   Auto Start num. interpolation iter.  ....    10
   Max. Number of Micro iterations      ....    16
   Max. Number of Macro iterations      .... Maxiter - #DIIS iter
   Number of Davidson start vectors     ....     2
   Converg. threshold I  (grad. norm)   ....   5.000e-05
   Converg. threshold II (energy diff.) ....   1.000e-06
   Grad. Scal. Fac. for Micro threshold ....   0.100
   Minimum threshold for Micro iter.    ....   0.010
   NR start threshold (gradient norm)   ....   0.001
   Initial trust radius                 ....   0.400
   Minimum AH scaling param. (alpha)    ....   1.000
   Maximum AH scaling param. (alpha)    .... 1000.000
   Orbital update algorithm             .... Taylor
   White noise on init. David. guess    .... on
   Maximum white noise                  ....   0.010
   Quad. conv. algorithm                .... NR
 SOSCF                  CNVSOSCF        .... on
   Start iteration      SOSCFMaxIt      ....   150
   Startup grad/error   SOSCFStart      ....  0.003300
 Level Shifting         CNVShift        .... on
   Level shift para.    LevelShift      ....    0.2500
   Turn off err/grad.   ShiftErr        ....    0.0010
 Zerner damping         CNVZerner       .... off
 Static damping         CNVDamp         .... on
   Fraction old density DampFac         ....    0.7000
   Max. Damping (<1)    DampMax         ....    0.9800
   Min. Damping (>=0)   DampMin         ....    0.0000
   Turn off err/grad.   DampErr         ....    0.1000
 Fernandez-Rico         CNVRico         .... off

SCF Procedure:
 Maximum # iterations   MaxIter         ....    10
 SCF integral mode      SCFMode         .... Direct
   Integral package                     .... SHARK and LIBINT hybrid scheme
 Reset frequency        DirectResetFreq ....    20
 Integral Threshold     Thresh          ....  1.000e-10 Eh
 Primitive CutOff       TCut            ....  1.000e-11 Eh

Convergence Tolerance:
 Convergence Check Mode ConvCheckMode   .... Total+1el-Energy
 Convergence forced     ConvForced      .... 0
 Energy Change          TolE            ....  1.000e-06 Eh
 1-El. energy change                    ....  1.000e-03 Eh
 Orbital Gradient       TolG            ....  5.000e-05
 Orbital Rotation angle TolX            ....  5.000e-05
 DIIS Error             TolErr          ....  1.000e-06


Diagonalization of the overlap matrix:
Smallest eigenvalue                        ... 2.146e-04
Time for diagonalization                   ...    0.077 sec
Threshold for overlap eigenvalues          ... 1.000e-08
Number of eigenvalues below threshold      ... 0
Time for construction of square roots      ...    0.029 sec
Total time needed                          ...    0.107 sec

Time for model grid setup =    3.163 sec

------------------------------
INITIAL GUESS: MODEL POTENTIAL
------------------------------
Loading Hartree-Fock densities                     ... done
Calculating cut-offs                               ... done
Initializing the effective Hamiltonian             ... done
Setting up the integral package (SHARK)            ... done
Starting the Coulomb interaction                   ... done (   3.8 sec)
Reading the grid                                   ... done
Mapping shells                                     ... done
Starting the XC term evaluation                    ... done (   1.0 sec)
Transforming the Hamiltonian                       ... done (   0.0 sec)
Diagonalizing the Hamiltonian                      ... done (   0.1 sec)
Back transforming the eigenvectors                 ... done (   0.0 sec)
Now organizing SCF variables                       ... done
                      ------------------
                      INITIAL GUESS DONE (   8.1 sec)
                      ------------------
--------------
SCF ITERATIONS
--------------
ITER       Energy         Delta-E        Max-DP      RMS-DP      [F,P]     Damp
               ***  Starting incremental Fock matrix formation  ***
