
                                 *****************
                                 * O   R   C   A *
                                 *****************

                                            #,                                       
                                            ###                                      
                                            ####                                     
                                            #####                                    
                                            ######                                   
                                           ########,                                 
                                     ,,################,,,,,                         
                               ,,#################################,,                 
                          ,,##########################################,,             
                       ,#########################################, ''#####,          
                    ,#############################################,,   '####,        
                  ,##################################################,,,,####,       
                ,###########''''           ''''###############################       
              ,#####''   ,,,,##########,,,,          '''####'''          '####       
            ,##' ,,,,###########################,,,                        '##       
           ' ,,###''''                  '''############,,,                           
         ,,##''                                '''############,,,,        ,,,,,,###''
      ,#''                                            '''#######################'''  
     '                                                          ''''####''''         
             ,#######,   #######,   ,#######,      ##                                
            ,#'     '#,  ##    ##  ,#'     '#,    #''#        ######   ,####,        
            ##       ##  ##   ,#'  ##            #'  '#       #        #'  '#        
            ##       ##  #######   ##           ,######,      #####,   #    #        
            '#,     ,#'  ##    ##  '#,     ,#' ,#      #,         ##   #,  ,#        
             '#######'   ##     ##  '#######'  #'      '#     #####' # '####'        



                  #######################################################
                  #                        -***-                        #
                  #          Department of theory and spectroscopy      #
                  #    Directorship and core code : Frank Neese         #
                  #        Max Planck Institute fuer Kohlenforschung    #
                  #                Kaiser Wilhelm Platz 1               #
                  #                 D-45470 Muelheim/Ruhr               #
                  #                      Germany                        #
                  #                                                     #
                  #                  All rights reserved                #
                  #                        -***-                        #
                  #######################################################


                         Program Version 5.0.2 -  RELEASE  -


 With contributions from (in alphabetic order):
   Daniel Aravena         : Magnetic Suceptibility
   Michael Atanasov       : Ab Initio Ligand Field Theory (pilot matlab implementation)
   Alexander A. Auer      : GIAO ZORA, VPT2 properties, NMR spectrum
   Ute Becker             : Parallelization
   Giovanni Bistoni       : ED, misc. LED, open-shell LED, HFLD
   Martin Brehm           : Molecular dynamics
   Dmytro Bykov           : SCF Hessian
   Vijay G. Chilkuri      : MRCI spin determinant printing, contributions to CSF-ICE
   Dipayan Datta          : RHF DLPNO-CCSD density
   Achintya Kumar Dutta   : EOM-CC, STEOM-CC
   Dmitry Ganyushin       : Spin-Orbit,Spin-Spin,Magnetic field MRCI
   Miquel Garcia          : C-PCM and meta-GGA Hessian, CC/C-PCM, Gaussian charge scheme
   Yang Guo               : DLPNO-NEVPT2, F12-NEVPT2, CIM, IAO-localization
   Andreas Hansen         : Spin unrestricted coupled pair/coupled cluster methods
   Benjamin Helmich-Paris : MC-RPA, TRAH-SCF, COSX integrals
   Lee Huntington         : MR-EOM, pCC
   Robert Izsak           : Overlap fitted RIJCOSX, COSX-SCS-MP3, EOM
   Marcus Kettner         : VPT2
   Christian Kollmar      : KDIIS, OOCD, Brueckner-CCSD(T), CCSD density, CASPT2, CASPT2-K
   Simone Kossmann        : Meta GGA functionals, TD-DFT gradient, OOMP2, MP2 Hessian
   Martin Krupicka        : Initial AUTO-CI
   Lucas Lang             : DCDCAS
   Marvin Lechner         : AUTO-CI (C++ implementation), FIC-MRCC
   Dagmar Lenk            : GEPOL surface, SMD
   Dimitrios Liakos       : Extrapolation schemes; Compound Job, initial MDCI parallelization
   Dimitrios Manganas     : Further ROCIS development; embedding schemes
   Dimitrios Pantazis     : SARC Basis sets
   Anastasios Papadopoulos: AUTO-CI, single reference methods and gradients
   Taras Petrenko         : DFT Hessian,TD-DFT gradient, ASA, ECA, R-Raman, ABS, FL, XAS/XES, NRVS
   Peter Pinski           : DLPNO-MP2, DLPNO-MP2 Gradient
   Christoph Reimann      : Effective Core Potentials
   Marius Retegan         : Local ZFS, SOC
   Christoph Riplinger    : Optimizer, TS searches, QM/MM, DLPNO-CCSD(T), (RO)-DLPNO pert. Triples
   Tobias Risthaus        : Range-separated hybrids, TD-DFT gradient, RPA, STAB
   Michael Roemelt        : Original ROCIS implementation
   Masaaki Saitow         : Open-shell DLPNO-CCSD energy and density
   Barbara Sandhoefer     : DKH picture change effects
   Avijit Sen             : IP-ROCIS
   Kantharuban Sivalingam : CASSCF convergence, NEVPT2, FIC-MRCI
   Bernardo de Souza      : ESD, SOC TD-DFT
   Georgi Stoychev        : AutoAux, RI-MP2 NMR, DLPNO-MP2 response
   Willem Van den Heuvel  : Paramagnetic NMR
   Boris Wezisla          : Elementary symmetry handling
   Frank Wennmohs         : Technical directorship


 We gratefully acknowledge several colleagues who have allowed us to
 interface, adapt or use parts of their codes:
   Stefan Grimme, W. Hujo, H. Kruse, P. Pracht,  : VdW corrections, initial TS optimization,
                  C. Bannwarth, S. Ehlert          DFT functionals, gCP, sTDA/sTD-DF
   Ed Valeev, F. Pavosevic, A. Kumar             : LibInt (2-el integral package), F12 methods
   Garnet Chan, S. Sharma, J. Yang, R. Olivares  : DMRG
   Ulf Ekstrom                                   : XCFun DFT Library
   Mihaly Kallay                                 : mrcc  (arbitrary order and MRCC methods)
   Jiri Pittner, Ondrej Demel                    : Mk-CCSD
   Frank Weinhold                                : gennbo (NPA and NBO analysis)
   Christopher J. Cramer and Donald G. Truhlar   : smd solvation model
   Lars Goerigk                                  : TD-DFT with DH, B97 family of functionals
   V. Asgeirsson, H. Jonsson                     : NEB implementation
   FAccTs GmbH                                   : IRC, NEB, NEB-TS, DLPNO-Multilevel, CI-OPT
                                                   MM, QMMM, 2- and 3-layer-ONIOM, Crystal-QMMM,
                                                   LR-CPCM, SF, NACMEs, symmetry and pop. for TD-DFT,
                                                   nearIR, NL-DFT gradient (VV10), updates on ESD,
                                                   ML-optimized integration grids
   S Lehtola, MJT Oliveira, MAL Marques          : LibXC Library
   Liviu Ungur et al                             : ANISO software


 Your calculation uses the libint2 library for the computation of 2-el integrals
 For citations please refer to: http://libint.valeyev.net

 Your ORCA version has been built with support for libXC version: 5.1.0
 For citations please refer to: https://tddft.org/programs/libxc/

 This ORCA versions uses:
   CBLAS   interface :  Fast vector & matrix operations
   LAPACKE interface :  Fast linear algebra routines
   SCALAPACK package :  Parallel linear algebra routines
   Shared memory     :  Shared parallel matrices
   BLAS/LAPACK       :  OpenBLAS 0.3.15  USE64BITINT DYNAMIC_ARCH NO_AFFINITY SkylakeX SINGLE_THREADED
        Core in use  :  SkylakeX
   Copyright (c) 2011-2014, The OpenBLAS Project


================================================================================

cite the ECPs for Sn [Def2-ECP] as follows:
Ce-Yb(ecp-28): M. Dolg, H. Stoll, H.Preuss, J. Chem. Phys., 1989, 90, 1730-1734.
Y-Cd(ecp-28), Hf-Hg(ecp-46): D. Andrae,U. Haeussermann, M. Dolg, H. Stoll, H. Preuss, Theor. Chim. Acta, 1990, 77, 123-141.
In-Sb(ecp-28), Tl-Bi(ecp-46): B. Metz, H. Stoll, M. Dolg, J. Chem. Phys., 2000, 113, 2563-2569.
Te-Xe(ecp-28), Po-Rn(ecp-46): K. A. Peterson, D. Figgen, E. Goll, H. Stoll, M. Dolg, J. Chem. Phys., 2003, 119, 11113-11123.
Rb(ecp-28), Cs(ecp-46): T. Leininger, A. Nicklass, W. Kuechle, H. Stoll, M. Dolg, A. Bergner, Chem. Phys. Lett., 1996, 255, 274-280.
Sr(ecp-28), Ba(ecp-46): M. Kaupp, P. V. Schleyer, H. Stoll and H. Preuss, J. Chem. Phys., 1991, 94, 1360-1366.
La(ecp-46): M. Dolg, H. Stoll, A. Savin, H. Preuss, Theor. Chim. Acta, 1989, 75, 173-194.
Lu(ecp-28): X. Cao, M. Dolg, J. Chem. Phys., 2001, 115, 7348-7355.

ECP parameters for Sn [Def2-ECP] have been obtained from:
TURBOMOLE (7.0.2)

----- Orbital basis set information -----
Your calculation utilizes the basis: def2-SVP
   F. Weigend and R. Ahlrichs, Phys. Chem. Chem. Phys. 7, 3297 (2005).

================================================================================
                                        WARNINGS
                       Please study these warnings very carefully!
================================================================================


INFO   : the flag for use of the SHARK integral package has been found!

================================================================================
                                       INPUT FILE
================================================================================
NAME = START_a007_b022_2.inp
|  1> !HF  DEF2-SVP 
|  2> %maxcore 20
|  3> %pal nprocs = 1  end
|  4> %scf
|  5> MAXITER 0
|  6> end
|  7> %output XYZFILE 1 end
|  8> * xyz 0 1
|  9> Cl 0.89395 1.877367 2.224703
| 10> Sn -0.072138 1.220169 0.083068
| 11> Cl -1.132797 0.525352 -1.982574
| 12> Cl 1.072402 -0.906558 0.200503
| 13> Cl -1.177316 3.379431 -0.10485
| 14> S 1.862254 2.278301 -1.248779
| 15> C 3.204299 1.344426 -0.683943
| 16> N 3.899619 0.638175 -1.567096
| 17> N 3.580653 1.407246 0.574671
| 18> C 4.687754 0.684726 1.174277
| 19> C 4.577744 -0.807849 1.066984
| 20> C 5.586235 -1.585584 0.694128
| 21> S -1.987488 0.265291 1.549316
| 22> C -3.282537 0.2145 0.419997
| 23> N -3.697183 1.328107 -0.168187
| 24> N -3.936458 -0.91299 0.175573
| 25> C -3.615962 -2.238056 0.660124
| 26> C -3.351635 -3.21239 -0.449698
| 27> C -2.895556 -2.89696 -1.653355
| 28> H 4.567234 -0.058528 -1.271666
| 29> H 3.493136 0.522982 -2.479421
| 30> H 2.939801 1.887903 1.199962
| 31> H 5.63367 1.036565 0.75071
| 32> H 4.691975 0.972424 2.226245
| 33> H 3.616164 -1.233649 1.330045
| 34> H 5.485858 -2.661492 0.665979
| 35> H 6.556535 -1.181878 0.426205
| 36> H -4.23756 1.282387 -1.017495
| 37> H -3.130019 2.164798 -0.062089
| 38> H -4.71744 -0.870122 -0.463232
| 39> H -2.744127 -2.158108 1.31122
| 40> H -4.441256 -2.590986 1.283501
| 41> H -3.533363 -4.251179 -0.196655
| 42> H -2.653603 -1.881523 -1.941086
| 43> H -2.707652 -3.666002 -2.38934
| 44> *
| 45> 
| 46>                          ****END OF INPUT****
================================================================================

                       ****************************
                       * Single Point Calculation *
                       ****************************

---------------------------------
CARTESIAN COORDINATES (ANGSTROEM)
---------------------------------
  Cl     0.893950    1.877367    2.224703
  Sn    -0.072138    1.220169    0.083068
  Cl    -1.132797    0.525352   -1.982574
  Cl     1.072402   -0.906558    0.200503
  Cl    -1.177316    3.379431   -0.104850
  S      1.862254    2.278301   -1.248779
  C      3.204299    1.344426   -0.683943
  N      3.899619    0.638175   -1.567096
  N      3.580653    1.407246    0.574671
  C      4.687754    0.684726    1.174277
  C      4.577744   -0.807849    1.066984
  C      5.586235   -1.585584    0.694128
  S     -1.987488    0.265291    1.549316
  C     -3.282537    0.214500    0.419997
  N     -3.697183    1.328107   -0.168187
  N     -3.936458   -0.912990    0.175573
  C     -3.615962   -2.238056    0.660124
  C     -3.351635   -3.212390   -0.449698
  C     -2.895556   -2.896960   -1.653355
  H      4.567234   -0.058528   -1.271666
  H      3.493136    0.522982   -2.479421
  H      2.939801    1.887903    1.199962
  H      5.633670    1.036565    0.750710
  H      4.691975    0.972424    2.226245
  H      3.616164   -1.233649    1.330045
  H      5.485858   -2.661492    0.665979
  H      6.556535   -1.181878    0.426205
  H     -4.237560    1.282387   -1.017495
  H     -3.130019    2.164798   -0.062089
  H     -4.717440   -0.870122   -0.463232
  H     -2.744127   -2.158108    1.311220
  H     -4.441256   -2.590986    1.283501
  H     -3.533363   -4.251179   -0.196655
  H     -2.653603   -1.881523   -1.941086
  H     -2.707652   -3.666002   -2.389340

----------------------------
CARTESIAN COORDINATES (A.U.)
----------------------------
  NO LB      ZA    FRAG     MASS         X           Y           Z
   0 Cl   17.0000    0    35.453    1.689321    3.547709    4.204079
   1 Sn   22.0000*   0   118.690   -0.136321    2.305785    0.156976
   2 Cl   17.0000    0    35.453   -2.140676    0.992771   -3.746522
   3 Cl   17.0000    0    35.453    2.026546   -1.713146    0.378896
   4 Cl   17.0000    0    35.453   -2.224805    6.386199   -0.198138
   5 S    16.0000    0    32.060    3.519150    4.305365   -2.359850
   6 C     6.0000    0    12.011    6.055248    2.540597   -1.292465
   7 N     7.0000    0    14.007    7.369212    1.205976   -2.961382
   8 N     7.0000    0    14.007    6.766454    2.659310    1.085971
   9 C     6.0000    0    12.011    8.858571    1.293945    2.219062
  10 C     6.0000    0    12.011    8.650682   -1.526613    2.016308
  11 C     6.0000    0    12.011   10.556454   -2.996320    1.311712
  12 S    16.0000    0    32.060   -3.755808    0.501327    2.927783
  13 C     6.0000    0    12.011   -6.203096    0.405346    0.793679
  14 N     7.0000    0    14.007   -6.986663    2.509759   -0.317827
  15 N     7.0000    0    14.007   -7.438828   -1.725301    0.331785
  16 C     6.0000    0    12.011   -6.833178   -4.229313    1.247454
  17 C     6.0000    0    12.011   -6.333672   -6.070537   -0.849806
  18 C     6.0000    0    12.011   -5.471808   -5.474461   -3.124388
  19 H     1.0000    0     1.008    8.630821   -0.110602   -2.403100
  20 H     1.0000    0     1.008    6.601070    0.988293   -4.685427
  21 H     1.0000    0     1.008    5.555419    3.567620    2.267600
  22 H     1.0000    0     1.008   10.646093    1.958824    1.418636
  23 H     1.0000    0     1.008    8.866548    1.837615    4.206993
  24 H     1.0000    0     1.008    6.833560   -2.331259    2.513421
  25 H     1.0000    0     1.008   10.366769   -5.029491    1.258518
  26 H     1.0000    0     1.008   12.390056   -2.233426    0.805411
  27 H     1.0000    0     1.008   -8.007828    2.423360   -1.922787
  28 H     1.0000    0     1.008   -5.914879    4.090875   -0.117331
  29 H     1.0000    0     1.008   -8.914670   -1.644292   -0.875382
  30 H     1.0000    0     1.008   -5.185649   -4.078233    2.477847
  31 H     1.0000    0     1.008   -8.392758   -4.896254    2.425465
  32 H     1.0000    0     1.008   -6.677088   -8.033564   -0.371624
  33 H     1.0000    0     1.008   -5.014583   -3.555563   -3.668121
  34 H     1.0000    0     1.008   -5.116721   -6.927740   -4.515198
* core charge reduced due to ECP

--------------------------------
INTERNAL COORDINATES (ANGSTROEM)
--------------------------------
 Cl     0   0   0     0.000000000000     0.00000000     0.00000000
 Sn     1   0   0     2.439638438001     0.00000000     0.00000000
 Cl     2   1   0     2.423766706994   177.03028918     0.00000000
 Cl     2   1   3     2.418001348915    90.39289661   266.41343453
 Cl     2   1   4     2.432929092894    90.49316761   181.82168780
 S      2   1   4     2.575913851529    92.62793218   268.20645782
 C      6   2   1     1.729811262695   101.07058309    62.19888097
 N      7   6   2     1.327486195337   118.44789487   119.68299894
 N      7   6   2     1.315179792542   120.57813772   295.06669614
 C      9   7   6     1.451631885099   126.14002736   180.31029390
 C     10   9   7     1.500464634230   114.18347826   300.91807980
 C     11  10   9     1.327006941972   123.18695550   134.07152443
 S      2   1   9     2.594270767458    83.99400873   149.26202550
 C     13   2   1     1.719038406157   101.29028077   157.87832285
 N     14  13   2     1.325900551935   120.14628731   300.25715437
 N     14  13   2     1.326118194626   121.17765522   124.19043814
 C     16  14  13     1.446826617799   127.42383959   353.03417510
 C     17  16  14     1.500300096037   112.70947040   239.93552346
 C     18  17  16     1.325252546796   125.30438162    27.28910891
 H      8   7   6     1.009150010323   121.26889942   192.28713256
 H      8   7   6     1.005402786033   116.92870456   347.00843508
 H      9   7   6     1.016224026597   115.52955276    10.87194322
 H     10   9   7     1.094512112526   109.83235164    66.10072481
 H     10   9   7     1.090607458744   105.66872045   180.68163644
 H     11  10   9     1.084040048209   116.00229776   313.11428216
 H     12  11  10     1.080946776115   121.33866365   177.45609542
 H     12  11  10     1.084547536240   122.08445868   358.97333811
 H     15  14  13     1.007681348142   120.23091133   160.93852141
 H     15  14  13     1.016358016636   118.07285733    10.74163668
 H     16  14  13     1.009872456191   117.50617844   177.00507908
 H     17  16  14     1.091060929163   108.04449164     2.16950123
 H     17  16  14     1.092825995054   108.63418553   117.51514021
 H     18  17  16     1.084499152768   114.83024091   205.41957807
 H     19  18  17     1.082793924779   122.78292244     0.99671549
 H     19  18  17     1.080928966771   120.59023531   178.39395523

---------------------------
INTERNAL COORDINATES (A.U.)
---------------------------
 Cl     0   0   0     0.000000000000     0.00000000     0.00000000
 Sn     1   0   0     4.610248513610     0.00000000     0.00000000
 Cl     2   1   0     4.580255288735   177.03028918     0.00000000
 Cl     2   1   3     4.569360340901    90.39289661   266.41343453
 Cl     2   1   4     4.597569688820    90.49316761   181.82168780
 S      2   1   4     4.867771723963    92.62793218   268.20645782
 C      6   2   1     3.268869549866   101.07058309    62.19888097
 N      7   6   2     2.508585355748   118.44789487   119.68299894
 N      7   6   2     2.485329624773   120.57813772   295.06669614
 C      9   7   6     2.743186710106   126.14002736   180.31029390
 C     10   9   7     2.835467232328   114.18347826   300.91807980
 C     11  10   9     2.507679698139   123.18695550   134.07152443
 S      2   1   9     4.902461267734    83.99400873   149.26202550
 C     13   2   1     3.248511801329   101.29028077   157.87832285
 N     14  13   2     2.505588923972   120.14628731   300.25715437
 N     14  13   2     2.506000209052   121.17765522   124.19043814
 C     16  14  13     2.734106070909   127.42383959   353.03417510
 C     17  16  14     2.835156300206   112.70947040   239.93552346
 C     18  17  16     2.504364371727   125.30438162    27.28910891
 H      8   7   6     1.907017147553   121.26889942   192.28713256
 H      8   7   6     1.899935919884   116.92870456   347.00843508
 H      9   7   6     1.920385100980   115.52955276    10.87194322
 H     10   9   7     2.068328142934   109.83235164    66.10072481
 H     10   9   7     2.060949416639   105.66872045   180.68163644
 H     11  10   9     2.048538809318   116.00229776   313.11428216
 H     12  11  10     2.042693372203   121.33866365   177.45609542
 H     12  11  10     2.049497822713   122.08445868   358.97333811
 H     15  14  13     1.904241778249   120.23091133   160.93852141
 H     15  14  13     1.920638305458   118.07285733    10.74163668
 H     16  14  13     1.908382372391   117.50617844   177.00507908
 H     17  16  14     2.061806351539   108.04449164     2.16950123
 H     17  16  14     2.065141842681   108.63418553   117.51514021
 H     18  17  16     2.049406391201   114.83024091   205.41957807
 H     19  18  17     2.046183977307   122.78292244     0.99671549
 H     19  18  17     2.042659717420   120.59023531   178.39395523

---------------------
BASIS SET INFORMATION
---------------------
There are 6 groups of distinct atoms

 Group   1 Type Cl  : 10s7p1d contracted to 4s3p1d pattern {5311/511/1}
 Group   2 Type Sn  : 10s7p6d contracted to 4s4p2d pattern {6211/4111/51}
 Group   3 Type S   : 10s7p1d contracted to 4s3p1d pattern {5311/511/1}
 Group   4 Type C   : 7s4p1d contracted to 3s2p1d pattern {511/31/1}
 Group   5 Type N   : 7s4p1d contracted to 3s2p1d pattern {511/31/1}
 Group   6 Type H   : 4s1p contracted to 2s1p pattern {31/1}

Atom   0Cl   basis set group =>   1
Atom   1Sn   basis set group =>   2
Atom   2Cl   basis set group =>   1
Atom   3Cl   basis set group =>   1
Atom   4Cl   basis set group =>   1
Atom   5S    basis set group =>   3
Atom   6C    basis set group =>   4
Atom   7N    basis set group =>   5
Atom   8N    basis set group =>   5
Atom   9C    basis set group =>   4
Atom  10C    basis set group =>   4
Atom  11C    basis set group =>   4
Atom  12S    basis set group =>   3
Atom  13C    basis set group =>   4
Atom  14N    basis set group =>   5
Atom  15N    basis set group =>   5
Atom  16C    basis set group =>   4
Atom  17C    basis set group =>   4
Atom  18C    basis set group =>   4
Atom  19H    basis set group =>   6
Atom  20H    basis set group =>   6
Atom  21H    basis set group =>   6
Atom  22H    basis set group =>   6
Atom  23H    basis set group =>   6
Atom  24H    basis set group =>   6
Atom  25H    basis set group =>   6
Atom  26H    basis set group =>   6
Atom  27H    basis set group =>   6
Atom  28H    basis set group =>   6
Atom  29H    basis set group =>   6
Atom  30H    basis set group =>   6
Atom  31H    basis set group =>   6
Atom  32H    basis set group =>   6
Atom  33H    basis set group =>   6
Atom  34H    basis set group =>   6
-------------------------
ECP PARAMETER INFORMATION
-------------------------

 Group 1, Type Sn ECP Def2-ECP (replacing 28 core electrons, lmax=3)

Atom   1Sn   ECP group =>   1

------------------------------------------------------------------------------
                           ORCA GTO INTEGRAL CALCULATION
------------------------------------------------------------------------------
------------------------------------------------------------------------------
                   ___                                                        
                  /   \      - P O W E R E D   B Y -                         
                 /     \                                                     
                 |  |  |   _    _      __       _____    __    __             
                 |  |  |  | |  | |    /  \     |  _  \  |  |  /  |          
                  \  \/   | |  | |   /    \    | | | |  |  | /  /          
                 / \  \   | |__| |  /  /\  \   | |_| |  |  |/  /          
                |  |  |   |  __  | /  /__\  \  |    /   |      \           
                |  |  |   | |  | | |   __   |  |    \   |  |\   \          
                \     /   | |  | | |  |  |  |  | |\  \  |  | \   \       
                 \___/    |_|  |_| |__|  |__|  |_| \__\ |__|  \__/        
                                                                              
                      - O R C A' S   B I G   F R I E N D -                    
                                      &                                       
                       - I N T E G R A L  F E E D E R -                       
                                                                              
 v1 FN, 2020, v2 2021                                                         
------------------------------------------------------------------------------


Reading SHARK input file START_a007_b022_2.SHARKINP.tmp ... ok
----------------------
SHARK INTEGRAL PACKAGE
----------------------

Number of atoms                             ...     35
Number of basis functions                   ...    382
Number of shells                            ...    178
Maximum angular momentum                    ...      2
Integral batch strategy                     ... SHARK/LIBINT Hybrid
RI-J (if used) integral strategy            ... SPLIT-RIJ (Revised 2003 algorithm where possible)
Printlevel                                  ...      1
Contraction scheme used                     ... SEGMENTED contraction
Coulomb Range Separation                    ... NOT USED
Exchange Range Separation                   ... NOT USED
Finite Nucleus Model                        ... NOT USED
Auxiliary Coulomb fitting basis             ... NOT available
Auxiliary J/K fitting basis                 ... NOT available
Auxiliary Correlation fitting basis         ... NOT available
Auxiliary 'external' fitting basis          ... NOT available
Integral threshold                          ...     1.000000e-10
Primitive cut-off                           ...     1.000000e-11
Primitive pair pre-selection threshold      ...     1.000000e-11

Calculating pre-screening integrals         ... done (  0.1 sec) Dimension = 178
Organizing shell pair data                  ... done (  0.1 sec)
Shell pair information
Total number of shell pairs                 ...     15931
Shell pairs after pre-screening             ...     10294
Total number of primitive shell pairs       ...     63564
Primitive shell pairs kept                  ...     24972
          la=0 lb=0:   3072 shell pairs
          la=1 lb=0:   3854 shell pairs
          la=1 lb=1:   1268 shell pairs
          la=2 lb=0:   1200 shell pairs
          la=2 lb=1:    770 shell pairs
          la=2 lb=2:    130 shell pairs

Calculating one electron integrals          ... done (  0.1 sec)
Calculating ECP integrals                   ... done (  0.3 sec)
Calculating Nuclear repulsion               ... done (  0.0 sec) ENN=   2948.736182583799 Eh

SHARK setup successfully completed in   0.7 seconds

Maximum memory used throughout the entire GTOINT-calculation: 74.6 MB
-------------------------------------------------------------------------------
                                 ORCA SCF
-------------------------------------------------------------------------------

------------
SCF SETTINGS
------------
Hamiltonian:
 Ab initio Hamiltonian  Method          .... Hartree-Fock(GTOs)


General Settings:
 Integral files         IntName         .... START_a007_b022_2
 Hartree-Fock type      HFTyp           .... RHF
 Total Charge           Charge          ....    0
 Multiplicity           Mult            ....    1
 Number of Electrons    NEL             ....  214
 Basis Dimension        Dim             ....  382
 Nuclear Repulsion      ENuc            ....   2948.7361825838 Eh

Convergence Acceleration:
 DIIS                   CNVDIIS         .... on
   Start iteration      DIISMaxIt       ....    12
   Startup error        DIISStart       ....  0.200000
   # of expansion vecs  DIISMaxEq       ....     5
   Bias factor          DIISBfac        ....   1.050
   Max. coefficient     DIISMaxC        ....  10.000
 Trust-Rad. Augm. Hess. CNVTRAH         .... auto
   Auto Start mean grad. ratio tolernc. ....  1.125000
   Auto Start start iteration           ....    20
   Auto Start num. interpolation iter.  ....    10
   Max. Number of Micro iterations      ....    16
   Max. Number of Macro iterations      .... Maxiter - #DIIS iter
   Number of Davidson start vectors     ....     2
   Converg. threshold I  (grad. norm)   ....   5.000e-05
   Converg. threshold II (energy diff.) ....   1.000e-06
   Grad. Scal. Fac. for Micro threshold ....   0.100
   Minimum threshold for Micro iter.    ....   0.010
   NR start threshold (gradient norm)   ....   0.001
   Initial trust radius                 ....   0.400
   Minimum AH scaling param. (alpha)    ....   1.000
   Maximum AH scaling param. (alpha)    .... 1000.000
   Orbital update algorithm             .... Taylor
   White noise on init. David. guess    .... on
   Maximum white noise                  ....   0.010
   Quad. conv. algorithm                .... NR
 SOSCF                  CNVSOSCF        .... on
   Start iteration      SOSCFMaxIt      ....   150
   Startup grad/error   SOSCFStart      ....  0.003300
 Level Shifting         CNVShift        .... on
   Level shift para.    LevelShift      ....    0.2500
   Turn off err/grad.   ShiftErr        ....    0.0010
 Zerner damping         CNVZerner       .... off
 Static damping         CNVDamp         .... on
   Fraction old density DampFac         ....    0.7000
   Max. Damping (<1)    DampMax         ....    0.9800
   Min. Damping (>=0)   DampMin         ....    0.0000
   Turn off err/grad.   DampErr         ....    0.1000
 Fernandez-Rico         CNVRico         .... off

SCF Procedure:
 Maximum # iterations   MaxIter         ....     0
 SCF integral mode      SCFMode         .... Direct
   Integral package                     .... SHARK and LIBINT hybrid scheme
 Reset frequency        DirectResetFreq ....    20
 Integral Threshold     Thresh          ....  1.000e-10 Eh
 Primitive CutOff       TCut            ....  1.000e-11 Eh

Convergence Tolerance:
 Convergence Check Mode ConvCheckMode   .... Total+1el-Energy
 Convergence forced     ConvForced      .... 0
 Energy Change          TolE            ....  1.000e-06 Eh
 1-El. energy change                    ....  1.000e-03 Eh
 Orbital Gradient       TolG            ....  5.000e-05
 Orbital Rotation angle TolX            ....  5.000e-05
 DIIS Error             TolErr          ....  1.000e-06


Diagonalization of the overlap matrix:
Smallest eigenvalue                        ... 2.013e-03
Time for diagonalization                   ...    0.019 sec
Threshold for overlap eigenvalues          ... 1.000e-08
Number of eigenvalues below threshold      ... 0
Time for construction of square roots      ...    0.006 sec
Total time needed                          ...    0.026 sec

Time for model grid setup =    0.847 sec

------------------------------
INITIAL GUESS: MODEL POTENTIAL
------------------------------
Loading Hartree-Fock densities                     ... done
  calling /opt/bwhpc/common/chem/orca/5.0.2_static/orca START_a007_b022_2_atom50.inp > START_a007_b022_2_atom50.out in order to generate an atomic fitting density for atom 1 (Sn with ECP) on-the-fly... 
    atom 1 (Sn), assumed electronic state with S=3: 1s2 2s2 2p6 3s2 3p6 4s2 3d10 4p6 5s2 4d10 5p2           ... done
Calculating cut-offs                               ... done
Initializing the effective Hamiltonian             ... done
Setting up the integral package (SHARK)            ... done
Starting the Coulomb interaction                   ... done (   0.9 sec)
Reading the grid                                   ... done
Mapping shells                                     ... done
Starting the XC term evaluation                    ... done (   0.4 sec)
Transforming the Hamiltonian                       ... done (   0.0 sec)
Diagonalizing the Hamiltonian                      ... done (   0.0 sec)
Back transforming the eigenvectors                 ... done (   0.0 sec)
Now organizing SCF variables                       ... done
                      ------------------
                      INITIAL GUESS DONE (   2.6 sec)
                      ------------------

     ****MaxIter==0 has been chosen - skipping the SCF****

!!!!!!!!!!!!!!!!!!!!!!!!!!!!!!!!!!!!!!!!!!!!!!!!!!!!!!!!!!!
!! SERIOUS WARNING: The orbitals and populations did NOT !!
!!                  come from a CONVERGED calculation    !!
!!!!!!!!!!!!!!!!!!!!!!!!!!!!!!!!!!!!!!!!!!!!!!!!!!!!!!!!!!!

THE WAVEFUNCTION AND DENSITY WILL STILL BE STORED BUT BE CAREFUL
MAKE SURE THAT WHAT YOU INPUT MAKES ACTUALLY SENSE!

             **** DENSITY START_a007_b022_2.scfp WAS UPDATED ****
----------------
ORBITAL ENERGIES
----------------

  NO   OCC          E(Eh)            E(eV) 
   0   2.0000    -100.384089     -2731.5899 
   1   2.0000    -100.382556     -2731.5482 
   2   2.0000    -100.380259     -2731.4857 
   3   2.0000    -100.378686     -2731.4429 
   4   2.0000     -87.777641     -2388.5511 
   5   2.0000     -87.774815     -2388.4741 
   6   2.0000     -14.071480      -382.9044 
   7   2.0000     -14.071070      -382.8933 
   8   2.0000     -14.063392      -382.6844 
   9   2.0000     -14.062491      -382.6598 
  10   2.0000      -9.963324      -271.1158 
  11   2.0000      -9.961897      -271.0770 
  12   2.0000      -9.958075      -270.9730 
  13   2.0000      -9.957712      -270.9631 
  14   2.0000      -9.957353      -270.9533 
  15   2.0000      -9.956811      -270.9386 
  16   2.0000      -9.954927      -270.8873 
  17   2.0000      -9.954228      -270.8683 
  18   2.0000      -9.938055      -270.4282 
  19   2.0000      -9.280625      -252.5387 
  20   2.0000      -9.279049      -252.4958 
  21   2.0000      -9.276733      -252.4327 
  22   2.0000      -9.275119      -252.3888 
  23   2.0000      -8.154888      -221.9058 
  24   2.0000      -8.153702      -221.8735 
  25   2.0000      -8.153393      -221.8651 
  26   2.0000      -7.762440      -211.2267 
  27   2.0000      -7.759581      -211.1489 
  28   2.0000      -7.140347      -194.2987 
  29   2.0000      -7.138745      -194.2551 
  30   2.0000      -7.136380      -194.1908 
  31   2.0000      -7.134738      -194.1461 
  32   2.0000      -7.133412      -194.1100 
  33   2.0000      -7.133373      -194.1089 
  34   2.0000      -7.131877      -194.0682 
  35   2.0000      -7.131860      -194.0678 
  36   2.0000      -7.129658      -194.0079 
  37   2.0000      -7.129568      -194.0054 
  38   2.0000      -7.128102      -193.9655 
  39   2.0000      -7.128003      -193.9628 
  40   2.0000      -5.819663      -158.3611 
  41   2.0000      -5.816674      -158.2797 
  42   2.0000      -5.815463      -158.2468 
  43   2.0000      -5.813130      -158.1833 
  44   2.0000      -5.812733      -158.1725 
  45   2.0000      -5.810325      -158.1070 
  46   2.0000      -5.333102      -145.1211 
  47   2.0000      -5.327474      -144.9679 
  48   2.0000      -5.292778      -144.0238 
  49   2.0000      -5.290070      -143.9501 
  50   2.0000      -5.288664      -143.9119 
  51   2.0000      -2.226784       -60.5939 
  52   2.0000      -1.600083       -43.5405 
  53   2.0000      -1.589293       -43.2469 
  54   2.0000      -1.576805       -42.9070 
  55   2.0000      -1.017199       -27.6794 
  56   2.0000      -1.016239       -27.6533 
  57   2.0000      -1.014529       -27.6067 
  58   2.0000      -0.966663       -26.3042 
  59   2.0000      -0.940947       -25.6045 
  60   2.0000      -0.935966       -25.4689 
  61   2.0000      -0.885852       -24.1052 
  62   2.0000      -0.884627       -24.0719 
  63   2.0000      -0.864053       -23.5121 
  64   2.0000      -0.849320       -23.1112 
  65   2.0000      -0.846361       -23.0307 
  66   2.0000      -0.810380       -22.0516 
  67   2.0000      -0.761157       -20.7121 
  68   2.0000      -0.756316       -20.5804 
  69   2.0000      -0.698235       -18.9999 
  70   2.0000      -0.686317       -18.6756 
  71   2.0000      -0.679862       -18.5000 
  72   2.0000      -0.674478       -18.3535 
  73   2.0000      -0.663161       -18.0455 
  74   2.0000      -0.647285       -17.6135 
  75   2.0000      -0.642374       -17.4799 
  76   2.0000      -0.630069       -17.1451 
  77   2.0000      -0.625917       -17.0321 
  78   2.0000      -0.622275       -16.9330 
  79   2.0000      -0.606997       -16.5172 
  80   2.0000      -0.591394       -16.0927 
  81   2.0000      -0.575949       -15.6724 
  82   2.0000      -0.561047       -15.2669 
  83   2.0000      -0.554157       -15.0794 
  84   2.0000      -0.544515       -14.8170 
  85   2.0000      -0.538163       -14.6442 
  86   2.0000      -0.528704       -14.3868 
  87   2.0000      -0.502832       -13.6828 
  88   2.0000      -0.494923       -13.4675 
  89   2.0000      -0.483198       -13.1485 
  90   2.0000      -0.476554       -12.9677 
  91   2.0000      -0.472020       -12.8443 
  92   2.0000      -0.466426       -12.6921 
  93   2.0000      -0.458846       -12.4858 
  94   2.0000      -0.443530       -12.0691 
  95   2.0000      -0.443236       -12.0611 
  96   2.0000      -0.438435       -11.9304 
  97   2.0000      -0.436835       -11.8869 
  98   2.0000      -0.431864       -11.7516 
  99   2.0000      -0.431356       -11.7378 
 100   2.0000      -0.428616       -11.6632 
 101   2.0000      -0.426936       -11.6175 
 102   2.0000      -0.415100       -11.2955 
 103   2.0000      -0.406545       -11.0626 
 104   2.0000      -0.382603       -10.4112 
 105   2.0000      -0.374116       -10.1802 
 106   2.0000      -0.371246       -10.1021 
 107   0.0000      -0.365465        -9.9448 
 108   0.0000      -0.364566        -9.9203 
 109   0.0000      -0.355654        -9.6778 
 110   0.0000      -0.348564        -9.4849 
 111   0.0000      -0.346274        -9.4226 
 112   0.0000      -0.343361        -9.3433 
 113   0.0000      -0.317330        -8.6350 
 114   0.0000      -0.231999        -6.3130 
 115   0.0000      -0.227454        -6.1893 
 116   0.0000      -0.145678        -3.9641 
 117   0.0000      -0.142893        -3.8883 
 118   0.0000      -0.136799        -3.7225 
 119   0.0000      -0.124011        -3.3745 
 120   0.0000      -0.102242        -2.7821 
 121   0.0000      -0.091422        -2.4877 
 122   0.0000      -0.058155        -1.5825 
 123   0.0000      -0.033926        -0.9232 
 124   0.0000      -0.027847        -0.7578 
 125   0.0000      -0.012512        -0.3405 
 126   0.0000      -0.010209        -0.2778 
 127   0.0000      -0.007259        -0.1975 
 128   0.0000       0.005753         0.1565 
 129   0.0000       0.008371         0.2278 
 130   0.0000       0.013517         0.3678 
 131   0.0000       0.022463         0.6113 
 132   0.0000       0.023323         0.6346 
 133   0.0000       0.031927         0.8688 
 134   0.0000       0.041650         1.1334 
 135   0.0000       0.042642         1.1604 
 136   0.0000       0.049129         1.3369 
 137   0.0000       0.049600         1.3497 
 138   0.0000       0.057715         1.5705 
 139   0.0000       0.066186         1.8010 
 140   0.0000       0.067898         1.8476 
 141   0.0000       0.073320         1.9952 
 142   0.0000       0.075429         2.0525 
 143   0.0000       0.083682         2.2771 
 144   0.0000       0.130850         3.5606 
 145   0.0000       0.136482         3.7139 
 146   0.0000       0.143167         3.8958 
 147   0.0000       0.157246         4.2789 
 148   0.0000       0.172435         4.6922 
 149   0.0000       0.183250         4.9865 
 150   0.0000       0.210015         5.7148 
 151   0.0000       0.217546         5.9197 
 152   0.0000       0.262272         7.1368 
 153   0.0000       0.271583         7.3902 
 154   0.0000       0.287181         7.8146 
 155   0.0000       0.290243         7.8979 
 156   0.0000       0.296456         8.0670 
 157   0.0000       0.298936         8.1345 
 158   0.0000       0.309220         8.4143 
 159   0.0000       0.315941         8.5972 
 160   0.0000       0.327708         8.9174 
 161   0.0000       0.336681         9.1615 
 162   0.0000       0.339732         9.2446 
 163   0.0000       0.347448         9.4545 
 164   0.0000       0.354425         9.6444 
 165   0.0000       0.366201         9.9648 
 166   0.0000       0.375482        10.2174 
 167   0.0000       0.383905        10.4466 
 168   0.0000       0.387752        10.5513 
 169   0.0000       0.398697        10.8491 
 170   0.0000       0.406491        11.0612 
 171   0.0000       0.411942        11.2095 
 172   0.0000       0.414946        11.2912 
 173   0.0000       0.420296        11.4368 
 174   0.0000       0.423430        11.5221 
 175   0.0000       0.432111        11.7583 
 176   0.0000       0.440122        11.9763 
 177   0.0000       0.448033        12.1916 
 178   0.0000       0.452697        12.3185 
 179   0.0000       0.453738        12.3468 
 180   0.0000       0.456301        12.4166 
 181   0.0000       0.461519        12.5586 
 182   0.0000       0.464566        12.6415 
 183   0.0000       0.467979        12.7344 
 184   0.0000       0.481421        13.1001 
 185   0.0000       0.483864        13.1666 
 186   0.0000       0.487369        13.2620 
 187   0.0000       0.494836        13.4652 
 188   0.0000       0.499007        13.5787 
 189   0.0000       0.508011        13.8237 
 190   0.0000       0.511360        13.9148 
 191   0.0000       0.513032        13.9603 
 192   0.0000       0.517730        14.0881 
 193   0.0000       0.519326        14.1316 
 194   0.0000       0.522065        14.2061 
 195   0.0000       0.524412        14.2700 
 196   0.0000       0.525996        14.3131 
 197   0.0000       0.527777        14.3616 
 198   0.0000       0.530095        14.4246 
 199   0.0000       0.533003        14.5038 
 200   0.0000       0.536797        14.6070 
 201   0.0000       0.543300        14.7840 
 202   0.0000       0.544606        14.8195 
 203   0.0000       0.546232        14.8637 
 204   0.0000       0.549291        14.9470 
 205   0.0000       0.554197        15.0805 
 206   0.0000       0.557935        15.1822 
 207   0.0000       0.561667        15.2837 
 208   0.0000       0.564679        15.3657 
 209   0.0000       0.566696        15.4206 
 210   0.0000       0.568625        15.4731 
 211   0.0000       0.569986        15.5101 
 212   0.0000       0.574573        15.6349 
 213   0.0000       0.575411        15.6577 
 214   0.0000       0.580657        15.8005 
 215   0.0000       0.586309        15.9543 
 216   0.0000       0.594217        16.1695 
 217   0.0000       0.595491        16.2041 
 218   0.0000       0.601067        16.3559 
 219   0.0000       0.604508        16.4495 
 220   0.0000       0.610097        16.6016 
 221   0.0000       0.616706        16.7814 
 222   0.0000       0.620739        16.8912 
 223   0.0000       0.627908        17.0863 
 224   0.0000       0.642445        17.4818 
 225   0.0000       0.646727        17.5983 
 226   0.0000       0.651603        17.7310 
 227   0.0000       0.662459        18.0264 
 228   0.0000       0.674850        18.3636 
 229   0.0000       0.680628        18.5208 
 230   0.0000       0.683057        18.5869 
 231   0.0000       0.684952        18.6385 
 232   0.0000       0.707417        19.2498 
 233   0.0000       0.710427        19.3317 
 234   0.0000       0.720477        19.6052 
 235   0.0000       0.730977        19.8909 
 236   0.0000       0.735242        20.0070 
 237   0.0000       0.750490        20.4219 
 238   0.0000       0.757375        20.6092 
 239   0.0000       0.760147        20.6846 
 240   0.0000       0.766188        20.8490 
 241   0.0000       0.798355        21.7243 
 242   0.0000       0.809581        22.0298 
 243   0.0000       0.820022        22.3139 
 244   0.0000       0.827087        22.5062 
 245   0.0000       0.849394        23.1132 
 246   0.0000       0.858225        23.3535 
 247   0.0000       0.871683        23.7197 
 248   0.0000       0.883319        24.0363 
 249   0.0000       0.893723        24.3194 
 250   0.0000       0.898668        24.4540 
 251   0.0000       0.914534        24.8857 
 252   0.0000       0.928687        25.2708 
 253   0.0000       0.937300        25.5052 
 254   0.0000       0.947270        25.7765 
 255   0.0000       0.965695        26.2779 
 256   0.0000       0.970769        26.4160 
 257   0.0000       0.983515        26.7628 
 258   0.0000       1.003864        27.3165 
 259   0.0000       1.013603        27.5815 
 260   0.0000       1.017837        27.6968 
 261   0.0000       1.034536        28.1511 
 262   0.0000       1.045280        28.4435 
 263   0.0000       1.053452        28.6659 
 264   0.0000       1.059041        28.8180 
 265   0.0000       1.065270        28.9875 
 266   0.0000       1.073579        29.2136 
 267   0.0000       1.090115        29.6635 
 268   0.0000       1.104193        30.0466 
 269   0.0000       1.115446        30.3528 
 270   0.0000       1.131363        30.7859 
 271   0.0000       1.131511        30.7900 
 272   0.0000       1.160256        31.5722 
 273   0.0000       1.201554        32.6959 
 274   0.0000       1.203461        32.7478 
 275   0.0000       1.226919        33.3862 
 276   0.0000       1.243140        33.8276 
 277   0.0000       1.269651        34.5490 
 278   0.0000       1.306009        35.5383 
 279   0.0000       1.330526        36.2055 
 280   0.0000       1.351836        36.7853 
 281   0.0000       1.384469        37.6733 
 282   0.0000       1.399957        38.0948 
 283   0.0000       1.400924        38.1211 
 284   0.0000       1.401672        38.1414 
 285   0.0000       1.441812        39.2337 
 286   0.0000       1.474045        40.1108 
 287   0.0000       1.481540        40.3148 
 288   0.0000       1.485595        40.4251 
 289   0.0000       1.496816        40.7304 
 290   0.0000       1.520767        41.3822 
 291   0.0000       1.539312        41.8868 
 292   0.0000       1.556579        42.3567 
 293   0.0000       1.569853        42.7179 
 294   0.0000       1.582469        43.0612 
 295   0.0000       1.587779        43.2057 
 296   0.0000       1.603144        43.6238 
 297   0.0000       1.628101        44.3029 
 298   0.0000       1.649751        44.8920 
 299   0.0000       1.653044        44.9816 
 300   0.0000       1.658012        45.1168 
 301   0.0000       1.659491        45.1570 
 302   0.0000       1.683767        45.8176 
 303   0.0000       1.687315        45.9142 
 304   0.0000       1.699091        46.2346 
 305   0.0000       1.706420        46.4341 
 306   0.0000       1.711845        46.5817 
 307   0.0000       1.721888        46.8549 
 308   0.0000       1.733270        47.1647 
 309   0.0000       1.741975        47.4016 
 310   0.0000       1.771053        48.1928 
 311   0.0000       1.780559        48.4515 
 312   0.0000       1.782231        48.4970 
 313   0.0000       1.785972        48.5988 
 314   0.0000       1.799974        48.9798 
 315   0.0000       1.820819        49.5470 
 316   0.0000       1.826757        49.7086 
 317   0.0000       1.850897        50.3655 
 318   0.0000       1.853538        50.4373 
 319   0.0000       1.864265        50.7292 
 320   0.0000       1.884713        51.2857 
 321   0.0000       1.896507        51.6066 
 322   0.0000       1.918874        52.2152 
 323   0.0000       1.927110        52.4393 
 324   0.0000       1.956089        53.2279 
 325   0.0000       1.959683        53.3257 
 326   0.0000       1.982359        53.9427 
 327   0.0000       2.002579        54.4929 
 328   0.0000       2.041143        55.5423 
 329   0.0000       2.067950        56.2718 
 330   0.0000       2.085416        56.7470 
 331   0.0000       2.102415        57.2096 
 332   0.0000       2.118878        57.6576 
 333   0.0000       2.121655        57.7332 
 334   0.0000       2.136579        58.1393 
 335   0.0000       2.142522        58.3010 
 336   0.0000       2.156955        58.6937 
 337   0.0000       2.169887        59.0456 
 338   0.0000       2.208988        60.1096 
 339   0.0000       2.230326        60.6903 
 340   0.0000       2.237725        60.8916 
 341   0.0000       2.244829        61.0849 
 342   0.0000       2.276619        61.9500 
 343   0.0000       2.308253        62.8107 
 344   0.0000       2.361043        64.2473 
 345   0.0000       2.365465        64.3676 
 346   0.0000       2.396754        65.2190 
 347   0.0000       2.442814        66.4723 
 348   0.0000       2.444464        66.5173 
 349   0.0000       2.467905        67.1551 
 350   0.0000       2.504528        68.1517 
 351   0.0000       2.547255        69.3143 
 352   0.0000       2.548553        69.3497 
 353   0.0000       2.557597        69.5957 
 354   0.0000       2.578247        70.1577 
 355   0.0000       2.596681        70.6593 
 356   0.0000       2.611021        71.0495 
 357   0.0000       2.619936        71.2921 
 358   0.0000       2.643779        71.9409 
 359   0.0000       2.670117        72.6576 
 360   0.0000       2.726520        74.1924 
 361   0.0000       2.730952        74.3130 
 362   0.0000       2.768737        75.3412 
 363   0.0000       2.794687        76.0473 
 364   0.0000       2.819558        76.7241 
 365   0.0000       2.825363        76.8820 
 366   0.0000       2.863397        77.9170 
 367   0.0000       2.892919        78.7203 
 368   0.0000       2.931441        79.7686 
 369   0.0000       2.942497        80.0694 
 370   0.0000       2.982152        81.1485 
 371   0.0000       3.061135        83.2977 
 372   0.0000       3.091054        84.1119 
 373   0.0000       3.101606        84.3990 
 374   0.0000       3.108543        84.5878 
 375   0.0000       3.183475        86.6267 
 376   0.0000       3.344256        91.0018 
 377   0.0000       3.384784        92.1047 
 378   0.0000       9.435495       256.7529 
 379   0.0000       9.475683       257.8464 
 380   0.0000       9.642419       262.3836 
 381   0.0000      43.495418      1183.5705 

                    ********************************
                    * MULLIKEN POPULATION ANALYSIS *
                    ********************************

-----------------------
MULLIKEN ATOMIC CHARGES
-----------------------
   0 Cl:    0.377322
   1 Sn:  -14.495404
   2 Cl:    0.323558
   3 Cl:    0.343601
   4 Cl:    0.355468
   5 S :    1.910801
   6 C :    0.428515
   7 N :    0.563775
   8 N :    0.861110
   9 C :    0.107803
  10 C :    0.598503
  11 C :    0.637633
  12 S :    1.867994
  13 C :    0.453362
  14 N :    0.642291
  15 N :    0.632056
  16 C :    0.144034
  17 C :    0.239729
  18 C :    0.269426
  19 H :    0.289366
  20 H :    0.293719
  21 H :    0.296560
  22 H :    0.240233
  23 H :    0.246598
  24 H :    0.159118
  25 H :    0.175703
  26 H :    0.173000
  27 H :    0.306587
  28 H :    0.293026
  29 H :    0.291740
  30 H :    0.223516
  31 H :    0.266009
  32 H :    0.155060
  33 H :    0.156065
  34 H :    0.172121
Sum of atomic charges:   -0.0000000

--------------------------------
MULLIKEN REDUCED ORBITAL CHARGES
--------------------------------
  0 Cls       :     5.987474  s :     5.987474
      pz      :     3.446423  p :    10.602670
      px      :     3.643264
      py      :     3.512983
      dz2     :     0.008079  d :     0.032535
      dxz     :     0.007060
      dyz     :     0.010404
      dx2y2   :     0.004107
      dxy     :     0.002886
  1 Sns       :     4.134402  s :     4.134402
      pz      :     4.251956  p :    12.799035
      px      :     4.303921
      py      :     4.243158
      dz2     :     3.940791  d :    19.561967
      dxz     :     3.944446
      dyz     :     3.830380
      dx2y2   :     3.918918
      dxy     :     3.927432
  2 Cls       :     5.992804  s :     5.992804
      pz      :     3.492029  p :    10.650189
      px      :     3.646610
      py      :     3.511550
      dz2     :     0.009065  d :     0.033449
      dxz     :     0.005504
      dyz     :     0.009965
      dx2y2   :     0.005104
      dxy     :     0.003812
  3 Cls       :     5.991837  s :     5.991837
      pz      :     3.565266  p :    10.630760
      px      :     3.629756
      py      :     3.435737
      dz2     :    -0.000609  d :     0.033802
      dxz     :     0.004385
      dyz     :     0.013898
      dx2y2   :     0.012013
      dxy     :     0.004115
  4 Cls       :     5.986240  s :     5.986240
      pz      :     3.564335  p :    10.625026
      px      :     3.650049
      py      :     3.410642
      dz2     :    -0.000655  d :     0.033265
      dxz     :     0.003756
      dyz     :     0.013586
      dx2y2   :     0.011319
      dxy     :     0.005260
  5 S s       :     5.900520  s :     5.900520
      pz      :     2.435175  p :     8.131529
      px      :     2.927199
      py      :     2.769154
      dz2     :     0.010107  d :     0.057150
      dxz     :     0.009690
      dyz     :     0.009641
      dx2y2   :     0.006984
      dxy     :     0.020728
  6 C s       :     3.000651  s :     3.000651
      pz      :     0.913191  p :     2.512420
      px      :     0.803996
      py      :     0.795234
      dz2     :     0.018679  d :     0.058413
      dxz     :     0.014820
      dyz     :     0.010074
      dx2y2   :     0.006297
      dxy     :     0.008543
  7 N s       :     3.336802  s :     3.336802
      pz      :     1.134698  p :     3.084840
      px      :     0.996343
      py      :     0.953799
      dz2     :     0.002803  d :     0.014584
      dxz     :     0.004606
      dyz     :     0.002712
      dx2y2   :     0.001524
      dxy     :     0.002938
  8 N s       :     3.315058  s :     3.315058
      pz      :     1.081416  p :     2.803275
      px      :     0.924638
      py      :     0.797220
      dz2     :     0.005767  d :     0.020556
      dxz     :     0.006474
      dyz     :     0.003600
      dx2y2   :     0.002064
      dxy     :     0.002651
  9 C s       :     2.980210  s :     2.980210
      pz      :     1.048694  p :     2.880363
      px      :     0.933752
      py      :     0.897917
      dz2     :     0.007733  d :     0.031624
      dxz     :     0.006181
      dyz     :     0.002886
      dx2y2   :     0.005196
      dxy     :     0.009628
 10 C s       :     3.172259  s :     3.172259
      pz      :     0.300711  p :     2.197693
      px      :     0.948787
      py      :     0.948195
      dz2     :     0.002766  d :     0.031545
      dxz     :     0.002148
      dyz     :     0.003466
      dx2y2   :     0.011650
      dxy     :     0.011515
 11 C s       :     3.166617  s :     3.166617
      pz      :     0.177007  p :     2.172027
      px      :     0.952542
      py      :     1.042477
      dz2     :     0.002236  d :     0.023723
      dxz     :     0.002308
      dyz     :     0.001422
      dx2y2   :     0.009496
      dxy     :     0.008261
 12 S s       :     5.904618  s :     5.904618
      pz      :     2.825654  p :     8.170590
      px      :     2.892276
      py      :     2.452660
      dz2     :     0.017319  d :     0.056798
      dxz     :     0.026167
      dyz     :     0.005651
      dx2y2   :     0.005778
      dxy     :     0.001883
 13 C s       :     2.992372  s :     2.992372
      pz      :     0.802446  p :     2.495553
      px      :     0.822989
      py      :     0.870118
      dz2     :     0.007942  d :     0.058713
      dxz     :     0.008853
      dyz     :     0.009081
      dx2y2   :     0.016966
      dxy     :     0.015871
 14 N s       :     3.325205  s :     3.325205
      pz      :     0.991864  p :     3.017420
      px      :     0.934441
      py      :     1.091116
      dz2     :     0.003304  d :     0.015084
      dxz     :     0.001810
      dyz     :     0.002750
      dx2y2   :     0.002245
      dxy     :     0.004974
 15 N s       :     3.367415  s :     3.367415
      pz      :     0.922582  p :     2.980768
      px      :     0.988188
      py      :     1.069997
      dz2     :     0.002008  d :     0.019761
      dxz     :     0.002995
      dyz     :     0.004161
      dx2y2   :     0.005138
      dxy     :     0.005459
 16 C s       :     2.950561  s :     2.950561
      pz      :     1.010415  p :     2.868750
      px      :     1.038283
      py      :     0.820052
      dz2     :     0.005302  d :     0.036655
      dxz     :     0.006535
      dyz     :     0.007500
      dx2y2   :     0.010920
      dxy     :     0.006398
 17 C s       :     3.159764  s :     3.159764
      pz      :     0.927637  p :     2.566527
      px      :     0.613377
      py      :     1.025512
      dz2     :     0.010111  d :     0.033981
      dxz     :     0.005579
      dyz     :     0.010770
      dx2y2   :     0.004731
      dxy     :     0.002789
 18 C s       :     3.166134  s :     3.166134
      pz      :     0.945752  p :     2.537529
      px      :     0.534223
      py      :     1.057554
      dz2     :     0.007805  d :     0.026911
      dxz     :     0.004407
      dyz     :     0.009557
      dx2y2   :     0.003411
      dxy     :     0.001731
 19 H s       :     0.669077  s :     0.669077
      pz      :     0.009388  p :     0.041557
      px      :     0.015171
      py      :     0.016998
 20 H s       :     0.664431  s :     0.664431
      pz      :     0.024908  p :     0.041850
      px      :     0.010363
      py      :     0.006579
 21 H s       :     0.664648  s :     0.664648
      pz      :     0.016260  p :     0.038791
      px      :     0.013732
      py      :     0.008799
 22 H s       :     0.735469  s :     0.735469
      pz      :     0.006275  p :     0.024298
      px      :     0.013156
      py      :     0.004867
 23 H s       :     0.728939  s :     0.728939
      pz      :     0.016259  p :     0.024463
      px      :     0.003580
      py      :     0.004624
 24 H s       :     0.817869  s :     0.817869
      pz      :     0.001948  p :     0.023013
      px      :     0.015763
      py      :     0.005302
 25 H s       :     0.801026  s :     0.801026
      pz      :     0.000736  p :     0.023270
      px      :     0.004102
      py      :     0.018431
 26 H s       :     0.803885  s :     0.803885
      pz      :     0.001650  p :     0.023115
      px      :     0.015323
      py      :     0.006142
 27 H s       :     0.652487  s :     0.652487
      pz      :     0.022276  p :     0.040926
      px      :     0.011223
      py      :     0.007427
 28 H s       :     0.664820  s :     0.664820
      pz      :     0.006645  p :     0.042154
      px      :     0.012698
      py      :     0.022812
 29 H s       :     0.668818  s :     0.668818
      pz      :     0.013979  p :     0.039441
      px      :     0.019199
      py      :     0.006263
 30 H s       :     0.752103  s :     0.752103
      pz      :     0.008483  p :     0.024381
      px      :     0.012807
      py      :     0.003091
 31 H s       :     0.709846  s :     0.709846
      pz      :     0.008178  p :     0.024146
      px      :     0.012121
      py      :     0.003847
 32 H s       :     0.821090  s :     0.821090
      pz      :     0.004023  p :     0.023850
      px      :     0.002810
      py      :     0.017017
 33 H s       :     0.817964  s :     0.817964
      pz      :     0.005028  p :     0.025970
      px      :     0.003526
      py      :     0.017416
 34 H s       :     0.802803  s :     0.802803
      pz      :     0.010776  p :     0.025076
      px      :     0.002880
      py      :     0.011420


                     *******************************
                     * LOEWDIN POPULATION ANALYSIS *
                     *******************************

----------------------
LOEWDIN ATOMIC CHARGES
----------------------
   0 Cl:    0.180609
   1 Sn:  -12.928266
   2 Cl:    0.115872
   3 Cl:    0.129024
   4 Cl:    0.150969
   5 S :    1.834722
   6 C :    0.317364
   7 N :    0.691586
   8 N :    0.939346
   9 C :    0.122323
  10 C :    0.690723
  11 C :    0.726177
  12 S :    1.820686
  13 C :    0.323569
  14 N :    0.732690
  15 N :    0.784275
  16 C :    0.121356
  17 C :    0.346192
  18 C :    0.363112
  19 H :    0.202387
  20 H :    0.201449
  21 H :    0.164766
  22 H :    0.182412
  23 H :    0.193652
  24 H :    0.106994
  25 H :    0.118566
  26 H :    0.115052
  27 H :    0.210067
  28 H :    0.155145
  29 H :    0.204578
  30 H :    0.160478
  31 H :    0.208445
  32 H :    0.112741
  33 H :    0.090154
  34 H :    0.110783

-------------------------------
LOEWDIN REDUCED ORBITAL CHARGES
-------------------------------
  0 Cls       :     5.898291  s :     5.898291
      pz      :     3.574054  p :    10.829422
      px      :     3.682262
      py      :     3.573106
      dz2     :     0.030261  d :     0.091678
      dxz     :     0.025424
      dyz     :     0.022753
      dx2y2   :     0.007003
      dxy     :     0.006236
  1 Sns       :     4.194408  s :     4.194408
      pz      :     4.261668  p :    12.762258
      px      :     4.251393
      py      :     4.249197
      dz2     :     3.612092  d :    17.971601
      dxz     :     3.550427
      dyz     :     3.592990
      dx2y2   :     3.654493
      dxy     :     3.561599
  2 Cls       :     5.901688  s :     5.901688
      pz      :     3.614712  p :    10.887320
      px      :     3.707190
      py      :     3.565419
      dz2     :     0.029510  d :     0.095119
      dxz     :     0.026239
      dyz     :     0.022660
      dx2y2   :     0.008397
      dxy     :     0.008312
  3 Cls       :     5.900575  s :     5.900575
      pz      :     3.615468  p :    10.873967
      px      :     3.689666
      py      :     3.568834
      dz2     :     0.010829  d :     0.096434
      dxz     :     0.006815
      dyz     :     0.021439
      dx2y2   :     0.028307
      dxy     :     0.029044
  4 Cls       :     5.898132  s :     5.898132
      pz      :     3.615394  p :    10.857482
      px      :     3.695865
      py      :     3.546222
      dz2     :     0.010733  d :     0.093416
      dxz     :     0.005883
      dyz     :     0.021391
      dx2y2   :     0.027391
      dxy     :     0.028019
  5 S s       :     5.621017  s :     5.621017
      pz      :     2.532133  p :     8.416808
      px      :     3.024135
      py      :     2.860540
      dz2     :     0.017770  d :     0.127453
      dxz     :     0.032633
      dyz     :     0.020296
      dx2y2   :     0.019430
      dxy     :     0.037323
  6 C s       :     2.830348  s :     2.830348
      pz      :     0.947713  p :     2.712083
      px      :     0.922328
      py      :     0.842042
      dz2     :     0.046187  d :     0.140205
      dxz     :     0.037559
      dyz     :     0.024710
      dx2y2   :     0.012853
      dxy     :     0.018895
  7 N s       :     3.044424  s :     3.044424
      pz      :     1.196579  p :     3.227677
      px      :     1.052252
      py      :     0.978845
      dz2     :     0.008352  d :     0.036313
      dxz     :     0.011152
      dyz     :     0.007395
      dx2y2   :     0.002811
      dxy     :     0.006603
  8 N s       :     3.036846  s :     3.036846
      pz      :     1.180537  p :     2.973039
      px      :     0.989115
      py      :     0.803387
      dz2     :     0.014998  d :     0.050769
      dxz     :     0.017384
      dyz     :     0.008744
      dx2y2   :     0.003838
      dxy     :     0.005805
  9 C s       :     2.833167  s :     2.833167
      pz      :     1.035464  p :     2.970218
      px      :     0.961030
      py      :     0.973724
      dz2     :     0.016860  d :     0.074292
      dxz     :     0.014591
      dyz     :     0.006245
      dx2y2   :     0.015077
      dxy     :     0.021519
 10 C s       :     2.882062  s :     2.882062
      pz      :     0.306994  p :     2.346081
      px      :     1.044902
      py      :     0.994185
      dz2     :     0.005696  d :     0.081134
      dxz     :     0.004986
      dyz     :     0.007333
      dx2y2   :     0.034072
      dxy     :     0.029048
 11 C s       :     2.908571  s :     2.908571
      pz      :     0.182115  p :     2.304816
      px      :     1.019435
      py      :     1.103266
      dz2     :     0.004481  d :     0.060437
      dxz     :     0.005510
      dyz     :     0.003412
      dx2y2   :     0.025323
      dxy     :     0.021710
 12 S s       :     5.617255  s :     5.617255
      pz      :     2.963445  p :     8.439197
      px      :     2.981466
      py      :     2.494286
      dz2     :     0.022353  d :     0.122862
      dxz     :     0.050918
      dyz     :     0.013407
      dx2y2   :     0.020953
      dxy     :     0.015232
 13 C s       :     2.832063  s :     2.832063
      pz      :     0.854611  p :     2.703324
      px      :     0.915058
      py      :     0.933654
      dz2     :     0.017698  d :     0.141044
      dxz     :     0.019183
      dyz     :     0.022498
      dx2y2   :     0.041262
      dxy     :     0.040404
 14 N s       :     3.045412  s :     3.045412
      pz      :     1.020273  p :     3.184811
      px      :     0.987151
      py      :     1.177387
      dz2     :     0.007436  d :     0.037087
      dxz     :     0.004201
      dyz     :     0.007343
      dx2y2   :     0.006308
      dxy     :     0.011799
 15 N s       :     3.048849  s :     3.048849
      pz      :     0.936537  p :     3.117928
      px      :     1.026144
      py      :     1.155246
      dz2     :     0.004967  d :     0.048948
      dxz     :     0.005918
      dyz     :     0.009714
      dx2y2   :     0.014223
      dxy     :     0.014126
 16 C s       :     2.833347  s :     2.833347
      pz      :     1.023394  p :     2.960345
      px      :     1.032359
      py      :     0.904591
      dz2     :     0.011135  d :     0.084953
      dxz     :     0.014623
      dyz     :     0.020628
      dx2y2   :     0.025909
      dxy     :     0.012657
 17 C s       :     2.878527  s :     2.878527
      pz      :     1.019568  p :     2.689265
      px      :     0.608661
      py      :     1.061036
      dz2     :     0.026069  d :     0.086016
      dxz     :     0.011820
      dyz     :     0.031953
      dx2y2   :     0.009741
      dxy     :     0.006433
 18 C s       :     2.906306  s :     2.906306
      pz      :     1.016908  p :     2.663833
      px      :     0.530963
      py      :     1.115962
      dz2     :     0.020358  d :     0.066749
      dxz     :     0.009796
      dyz     :     0.025144
      dx2y2   :     0.007004
      dxy     :     0.004446
 19 H s       :     0.680916  s :     0.680916
      pz      :     0.022714  p :     0.116697
      px      :     0.043667
      py      :     0.050315
 20 H s       :     0.682712  s :     0.682712
      pz      :     0.071500  p :     0.115840
      px      :     0.028504
      py      :     0.015836
 21 H s       :     0.720224  s :     0.720224
      pz      :     0.043275  p :     0.115010
      px      :     0.045766
      py      :     0.025969
 22 H s       :     0.741626  s :     0.741626
      pz      :     0.018296  p :     0.075962
      px      :     0.042556
      py      :     0.015110
 23 H s       :     0.730829  s :     0.730829
      pz      :     0.051229  p :     0.075520
      px      :     0.010449
      py      :     0.013841
 24 H s       :     0.823076  s :     0.823076
      pz      :     0.005881  p :     0.069930
      px      :     0.046759
      py      :     0.017290
 25 H s       :     0.811128  s :     0.811128
      pz      :     0.001976  p :     0.070306
      px      :     0.010924
      py      :     0.057406
 26 H s       :     0.815080  s :     0.815080
      pz      :     0.004851  p :     0.069868
      px      :     0.047113
      py      :     0.017905
 27 H s       :     0.674610  s :     0.674610
      pz      :     0.066342  p :     0.115323
      px      :     0.032626
      py      :     0.016354
 28 H s       :     0.723554  s :     0.723554
      pz      :     0.015059  p :     0.121301
      px      :     0.041640
      py      :     0.064602
 29 H s       :     0.682532  s :     0.682532
      pz      :     0.042159  p :     0.112890
      px      :     0.055644
      py      :     0.015087
 30 H s       :     0.764070  s :     0.764070
      pz      :     0.026504  p :     0.075452
      px      :     0.038869
      py      :     0.010080
 31 H s       :     0.715907  s :     0.715907
      pz      :     0.025394  p :     0.075648
      px      :     0.036703
      py      :     0.013551
 32 H s       :     0.813662  s :     0.813662
      pz      :     0.011955  p :     0.073597
      px      :     0.008744
      py      :     0.052898
 33 H s       :     0.833402  s :     0.833402
      pz      :     0.013455  p :     0.076444
      px      :     0.009599
      py      :     0.053389
 34 H s       :     0.813731  s :     0.813731
      pz      :     0.031484  p :     0.075486
      px      :     0.008389
      py      :     0.035613


                      *****************************
                      * MAYER POPULATION ANALYSIS *
                      *****************************

  NA   - Mulliken gross atomic population
  ZA   - Total nuclear charge
  QA   - Mulliken gross atomic charge
  VA   - Mayer's total valence
  BVA  - Mayer's bonded valence
  FA   - Mayer's free valence

  ATOM       NA         ZA         QA         VA         BVA        FA
  0 Cl    16.6227    17.0000     0.3773     1.6387     1.6387     0.0000
  1 Sn    36.4954    22.0000   -14.4954     1.3256     1.3256     0.0000
  2 Cl    16.6764    17.0000     0.3236     1.5678     1.5678    -0.0000
  3 Cl    16.6564    17.0000     0.3436     1.5908     1.5908    -0.0000
  4 Cl    16.6445    17.0000     0.3555     1.6014     1.6014     0.0000
  5 S     14.0892    16.0000     1.9108     2.1879     2.1879     0.0000
  6 C      5.5715     6.0000     0.4285     3.9332     3.9332    -0.0000
  7 N      6.4362     7.0000     0.5638     3.8300     3.8300     0.0000
  8 N      6.1389     7.0000     0.8611     3.6861     3.6861     0.0000
  9 C      5.8922     6.0000     0.1078     3.9451     3.9451    -0.0000
 10 C      5.4015     6.0000     0.5985     3.5548     3.5548     0.0000
 11 C      5.3624     6.0000     0.6376     3.0970     3.0970    -0.0000
 12 S     14.1320    16.0000     1.8680     2.2772     2.2772    -0.0000
 13 C      5.5466     6.0000     0.4534     3.9401     3.9401     0.0000
 14 N      6.3577     7.0000     0.6423     3.7282     3.7282     0.0000
 15 N      6.3679     7.0000     0.6321     3.8192     3.8192    -0.0000
 16 C      5.8560     6.0000     0.1440     3.9248     3.9248     0.0000
 17 C      5.7603     6.0000     0.2397     3.9894     3.9894    -0.0000
 18 C      5.7306     6.0000     0.2694     3.6499     3.6499    -0.0000
 19 H      0.7106     1.0000     0.2894     0.9336     0.9336     0.0000
 20 H      0.7063     1.0000     0.2937     0.9179     0.9179     0.0000
 21 H      0.7034     1.0000     0.2966     0.9048     0.9048     0.0000
 22 H      0.7598     1.0000     0.2402     0.9514     0.9514    -0.0000
 23 H      0.7534     1.0000     0.2466     0.9391     0.9391     0.0000
 24 H      0.8409     1.0000     0.1591     0.9604     0.9604     0.0000
 25 H      0.8243     1.0000     0.1757     0.9537     0.9537     0.0000
 26 H      0.8270     1.0000     0.1730     0.9602     0.9602     0.0000
 27 H      0.6934     1.0000     0.3066     0.9167     0.9167     0.0000
 28 H      0.7070     1.0000     0.2930     0.9137     0.9137    -0.0000
 29 H      0.7083     1.0000     0.2917     0.9187     0.9187    -0.0000
 30 H      0.7765     1.0000     0.2235     0.9568     0.9568     0.0000
 31 H      0.7340     1.0000     0.2660     0.9326     0.9326    -0.0000
 32 H      0.8449     1.0000     0.1551     0.9660     0.9660    -0.0000
 33 H      0.8439     1.0000     0.1561     0.9631     0.9631     0.0000
 34 H      0.8279     1.0000     0.1721     0.9573     0.9573     0.0000

  Mayer bond orders larger than 0.100000
B(  0-Cl,  1-Sn) :   0.3107 B(  0-Cl,  2-Cl) :   0.4295 B(  0-Cl,  3-Cl) :   0.2756 
B(  0-Cl,  4-Cl) :   0.2602 B(  0-Cl,  5-S ) :   0.2529 B(  1-Sn,  2-Cl) :   0.3022 
B(  1-Sn,  3-Cl) :   0.2933 B(  1-Sn,  4-Cl) :   0.3247 B(  2-Cl,  3-Cl) :   0.2506 
B(  2-Cl,  4-Cl) :   0.2645 B(  2-Cl,  5-S ) :   0.1974 B(  3-Cl,  4-Cl) :   0.4215 
B(  3-Cl, 12-S ) :   0.1761 B(  4-Cl, 12-S ) :   0.2136 B(  5-S ,  6-C ) :   0.9050 
B(  5-S , 12-S ) :   0.2381 B(  5-S , 18-C ) :   0.1131 B(  6-C ,  7-N ) :   1.5976 
B(  6-C ,  8-N ) :   1.2821 B(  7-N ,  8-N ) :   0.1929 B(  7-N , 19-H ) :   0.8580 
B(  7-N , 20-H ) :   0.8600 B(  8-N ,  9-C ) :   1.1099 B(  8-N , 21-H ) :   0.8269 
B(  9-C , 10-C ) :   1.0993 B(  9-C , 22-H ) :   0.8047 B(  9-C , 23-H ) :   0.7855 
B( 10-C , 11-C ) :   1.1189 B( 10-C , 24-H ) :   0.9279 B( 11-C , 25-H ) :   0.9080 
B( 11-C , 26-H ) :   0.9201 B( 12-S , 13-C ) :   0.9091 B( 12-S , 17-C ) :   0.1451 
B( 12-S , 18-C ) :   0.1627 B( 13-C , 14-N ) :   1.5343 B( 13-C , 15-N ) :   1.3278 
B( 14-N , 15-N ) :   0.1515 B( 14-N , 27-H ) :   0.8536 B( 14-N , 28-H ) :   0.8551 
B( 15-N , 16-C ) :   1.1040 B( 15-N , 29-H ) :   0.8528 B( 16-C , 17-C ) :   1.1271 
B( 16-C , 30-H ) :   0.7954 B( 16-C , 31-H ) :   0.7553 B( 17-C , 18-C ) :   1.3454 
B( 17-C , 32-H ) :   0.9255 B( 18-C , 33-H ) :   0.9286 B( 18-C , 34-H ) :   0.9146 


-------
TIMINGS
-------

Total SCF time: 0 days 0 hours 0 min 2 sec 

Total time                  ....       2.777 sec
Sum of individual times     ....       2.601 sec  ( 93.7%)

Fock matrix formation       ....       0.000 sec  (  0.0%)
Diagonalization             ....       0.000 sec  (  0.0%)
Density matrix formation    ....       0.000 sec  (  0.0%)
Population analysis         ....       0.015 sec  (  0.5%)
Initial guess               ....       1.739 sec  ( 62.6%)
Orbital Transformation      ....       0.000 sec  (  0.0%)
Orbital Orthonormalization  ....       0.000 sec  (  0.0%)
DIIS solution               ....       0.000 sec  (  0.0%)
SOSCF solution              ....       0.000 sec  (  0.0%)

Maximum memory used throughout the entire SCF-calculation: 79.2 MB

-------------------------   --------------------
FINAL SINGLE POINT ENERGY         0.000000000000
-------------------------   --------------------


                            ***************************************
                            *     ORCA property calculations      *
                            ***************************************

                                    ---------------------
                                    Active property flags
                                    ---------------------
   (+) Dipole Moment


------------------------------------------------------------------------------
                       ORCA ELECTRIC PROPERTIES CALCULATION
------------------------------------------------------------------------------

Dipole Moment Calculation                       ... on
Quadrupole Moment Calculation                   ... off
Polarizability Calculation                      ... off
GBWName                                         ... START_a007_b022_2.gbw
Electron density                                ... START_a007_b022_2.scfp
The origin for moment calculation is the CENTER OF MASS  = ( 0.157029,  1.222486  0.121911)

-------------
DIPOLE MOMENT
-------------
                                X             Y             Z
Electronic contribution:     -5.30711      39.62035       1.94756
Nuclear contribution   :     18.87928     -65.11746      -2.98315
                        -----------------------------------------
Total Dipole Moment    :     13.57217     -25.49711      -1.03559
                        -----------------------------------------
Magnitude (a.u.)       :     28.90292
Magnitude (Debye)      :     73.46538



--------------------
Rotational spectrum 
--------------------
 
Rotational constants in cm-1:     0.009718     0.004586     0.003986 
Rotational constants in MHz :   291.330713   137.480540   119.483405 

 Dipole components along the rotational axes: 
x,y,z [a.u.] :     9.014081    27.450246    -0.780435 
x,y,z [Debye]:    22.911973    69.772981    -1.983708 

 

Timings for individual modules:

Sum of individual times         ...        3.556 sec (=   0.059 min)
GTO integral calculation        ...        0.763 sec (=   0.013 min)  21.4 %
SCF iterations                  ...        2.793 sec (=   0.047 min)  78.6 %
                             ****ORCA TERMINATED NORMALLY****
TOTAL RUN TIME: 0 days 0 hours 0 minutes 3 seconds 711 msec
