
                                 *****************
                                 * O   R   C   A *
                                 *****************

                                            #,                                       
                                            ###                                      
                                            ####                                     
                                            #####                                    
                                            ######                                   
                                           ########,                                 
                                     ,,################,,,,,                         
                               ,,#################################,,                 
                          ,,##########################################,,             
                       ,#########################################, ''#####,          
                    ,#############################################,,   '####,        
                  ,##################################################,,,,####,       
                ,###########''''           ''''###############################       
              ,#####''   ,,,,##########,,,,          '''####'''          '####       
            ,##' ,,,,###########################,,,                        '##       
           ' ,,###''''                  '''############,,,                           
         ,,##''                                '''############,,,,        ,,,,,,###''
      ,#''                                            '''#######################'''  
     '                                                          ''''####''''         
             ,#######,   #######,   ,#######,      ##                                
            ,#'     '#,  ##    ##  ,#'     '#,    #''#        ######   ,####,        
            ##       ##  ##   ,#'  ##            #'  '#       #        #'  '#        
            ##       ##  #######   ##           ,######,      #####,   #    #        
            '#,     ,#'  ##    ##  '#,     ,#' ,#      #,         ##   #,  ,#        
             '#######'   ##     ##  '#######'  #'      '#     #####' # '####'        



                  #######################################################
                  #                        -***-                        #
                  #          Department of theory and spectroscopy      #
                  #    Directorship and core code : Frank Neese         #
                  #        Max Planck Institute fuer Kohlenforschung    #
                  #                Kaiser Wilhelm Platz 1               #
                  #                 D-45470 Muelheim/Ruhr               #
                  #                      Germany                        #
                  #                                                     #
                  #                  All rights reserved                #
                  #                        -***-                        #
                  #######################################################


                         Program Version 5.0.2 -  RELEASE  -


 With contributions from (in alphabetic order):
   Daniel Aravena         : Magnetic Suceptibility
   Michael Atanasov       : Ab Initio Ligand Field Theory (pilot matlab implementation)
   Alexander A. Auer      : GIAO ZORA, VPT2 properties, NMR spectrum
   Ute Becker             : Parallelization
   Giovanni Bistoni       : ED, misc. LED, open-shell LED, HFLD
   Martin Brehm           : Molecular dynamics
   Dmytro Bykov           : SCF Hessian
   Vijay G. Chilkuri      : MRCI spin determinant printing, contributions to CSF-ICE
   Dipayan Datta          : RHF DLPNO-CCSD density
   Achintya Kumar Dutta   : EOM-CC, STEOM-CC
   Dmitry Ganyushin       : Spin-Orbit,Spin-Spin,Magnetic field MRCI
   Miquel Garcia          : C-PCM and meta-GGA Hessian, CC/C-PCM, Gaussian charge scheme
   Yang Guo               : DLPNO-NEVPT2, F12-NEVPT2, CIM, IAO-localization
   Andreas Hansen         : Spin unrestricted coupled pair/coupled cluster methods
   Benjamin Helmich-Paris : MC-RPA, TRAH-SCF, COSX integrals
   Lee Huntington         : MR-EOM, pCC
   Robert Izsak           : Overlap fitted RIJCOSX, COSX-SCS-MP3, EOM
   Marcus Kettner         : VPT2
   Christian Kollmar      : KDIIS, OOCD, Brueckner-CCSD(T), CCSD density, CASPT2, CASPT2-K
   Simone Kossmann        : Meta GGA functionals, TD-DFT gradient, OOMP2, MP2 Hessian
   Martin Krupicka        : Initial AUTO-CI
   Lucas Lang             : DCDCAS
   Marvin Lechner         : AUTO-CI (C++ implementation), FIC-MRCC
   Dagmar Lenk            : GEPOL surface, SMD
   Dimitrios Liakos       : Extrapolation schemes; Compound Job, initial MDCI parallelization
   Dimitrios Manganas     : Further ROCIS development; embedding schemes
   Dimitrios Pantazis     : SARC Basis sets
   Anastasios Papadopoulos: AUTO-CI, single reference methods and gradients
   Taras Petrenko         : DFT Hessian,TD-DFT gradient, ASA, ECA, R-Raman, ABS, FL, XAS/XES, NRVS
   Peter Pinski           : DLPNO-MP2, DLPNO-MP2 Gradient
   Christoph Reimann      : Effective Core Potentials
   Marius Retegan         : Local ZFS, SOC
   Christoph Riplinger    : Optimizer, TS searches, QM/MM, DLPNO-CCSD(T), (RO)-DLPNO pert. Triples
   Tobias Risthaus        : Range-separated hybrids, TD-DFT gradient, RPA, STAB
   Michael Roemelt        : Original ROCIS implementation
   Masaaki Saitow         : Open-shell DLPNO-CCSD energy and density
   Barbara Sandhoefer     : DKH picture change effects
   Avijit Sen             : IP-ROCIS
   Kantharuban Sivalingam : CASSCF convergence, NEVPT2, FIC-MRCI
   Bernardo de Souza      : ESD, SOC TD-DFT
   Georgi Stoychev        : AutoAux, RI-MP2 NMR, DLPNO-MP2 response
   Willem Van den Heuvel  : Paramagnetic NMR
   Boris Wezisla          : Elementary symmetry handling
   Frank Wennmohs         : Technical directorship


 We gratefully acknowledge several colleagues who have allowed us to
 interface, adapt or use parts of their codes:
   Stefan Grimme, W. Hujo, H. Kruse, P. Pracht,  : VdW corrections, initial TS optimization,
                  C. Bannwarth, S. Ehlert          DFT functionals, gCP, sTDA/sTD-DF
   Ed Valeev, F. Pavosevic, A. Kumar             : LibInt (2-el integral package), F12 methods
   Garnet Chan, S. Sharma, J. Yang, R. Olivares  : DMRG
   Ulf Ekstrom                                   : XCFun DFT Library
   Mihaly Kallay                                 : mrcc  (arbitrary order and MRCC methods)
   Jiri Pittner, Ondrej Demel                    : Mk-CCSD
   Frank Weinhold                                : gennbo (NPA and NBO analysis)
   Christopher J. Cramer and Donald G. Truhlar   : smd solvation model
   Lars Goerigk                                  : TD-DFT with DH, B97 family of functionals
   V. Asgeirsson, H. Jonsson                     : NEB implementation
   FAccTs GmbH                                   : IRC, NEB, NEB-TS, DLPNO-Multilevel, CI-OPT
                                                   MM, QMMM, 2- and 3-layer-ONIOM, Crystal-QMMM,
                                                   LR-CPCM, SF, NACMEs, symmetry and pop. for TD-DFT,
                                                   nearIR, NL-DFT gradient (VV10), updates on ESD,
                                                   ML-optimized integration grids
   S Lehtola, MJT Oliveira, MAL Marques          : LibXC Library
   Liviu Ungur et al                             : ANISO software


 Your calculation uses the libint2 library for the computation of 2-el integrals
 For citations please refer to: http://libint.valeyev.net

 Your ORCA version has been built with support for libXC version: 5.1.0
 For citations please refer to: https://tddft.org/programs/libxc/

 This ORCA versions uses:
   CBLAS   interface :  Fast vector & matrix operations
   LAPACKE interface :  Fast linear algebra routines
   SCALAPACK package :  Parallel linear algebra routines
   Shared memory     :  Shared parallel matrices
   BLAS/LAPACK       :  OpenBLAS 0.3.15  USE64BITINT DYNAMIC_ARCH NO_AFFINITY SkylakeX SINGLE_THREADED
        Core in use  :  SkylakeX
   Copyright (c) 2011-2014, The OpenBLAS Project


================================================================================

----- Orbital basis set information -----
Your calculation utilizes the basis: def2-SVP
   F. Weigend and R. Ahlrichs, Phys. Chem. Chem. Phys. 7, 3297 (2005).

================================================================================
                                        WARNINGS
                       Please study these warnings very carefully!
================================================================================


INFO   : the flag for use of the SHARK integral package has been found!

================================================================================
                                       INPUT FILE
================================================================================
NAME = START_a001_b004_2.inp
|  1> !HF  DEF2-SVP 
|  2> %maxcore 20
|  3> %pal nprocs = 1  end
|  4> %scf
|  5> MAXITER 10
|  6> end
|  7> %output XYZFILE 1 end
|  8> * xyz 0 1
|  9> C -2.572072 5.843807 2.971184
| 10> O -1.346611 5.228777 2.680725
| 11> C -1.363975 4.018874 2.077228
| 12> C -2.517119 3.335326 1.704573
| 13> C -2.413674 2.095739 1.087596
| 14> C -0.129902 3.429988 1.826401
| 15> C -0.059422 2.193863 1.204173
| 16> C -1.19193 1.482651 0.801802
| 17> B -1.222234 0.058009 0.028297
| 18> C -1.52834 0.199942 -1.558032
| 19> C -2.082863 1.346295 -2.117429
| 20> C -2.369775 1.464788 -3.474686
| 21> C -2.089921 0.41193 -4.335112
| 22> O -2.321941 0.422595 -5.666254
| 23> C -2.917202 1.560968 -6.227254
| 24> C -1.51907 -0.748448 -3.813357
| 25> C -1.252778 -0.83898 -2.460776
| 26> C -2.183208 -1.001536 0.789975
| 27> C -2.332547 -0.969981 2.185356
| 28> C -3.109867 -1.879654 2.876385
| 29> C -3.796251 -2.877788 2.186083
| 30> O -4.533602 -3.726251 2.934407
| 31> C -5.231464 -4.753494 2.28338
| 32> C -3.688155 -2.930862 0.802055
| 33> C -2.895222 -2.002049 0.13407
| 34> O 4.541011 -3.088897 0.428115
| 35> C 4.374814 -1.904963 0.263784
| 36> C 5.511615 -0.966944 0.096418
| 37> C 5.413201 0.383589 0.427022
| 38> C 6.515378 1.214527 0.301942
| 39> C 7.717601 0.70603 -0.165055
| 40> C 7.824459 -0.640249 -0.490618
| 41> C 6.731834 -1.475436 -0.349179
| 42> C 2.972394 -1.37267 0.218159
| 43> C 2.002532 -1.942126 1.030763
| 44> C 0.700781 -1.490698 0.951194
| 45> N 0.331983 -0.538172 0.094639
| 46> C 1.250648 -0.001901 -0.712117
| 47> C 2.575596 -0.383779 -0.67358
| 48> H -2.339839 6.792778 3.450338
| 49> H -3.161403 6.045754 2.070504
| 50> H -3.184172 5.250076 3.658269
| 51> H -3.501572 3.744425 1.890169
| 52> H -3.33248 1.58354 0.824163
| 53> H 0.77221 3.948169 2.127112
| 54> H 0.934132 1.787729 1.048101
| 55> H -2.300382 2.196312 -1.482991
| 56> H -2.803264 2.388299 -3.835169
| 57> H -2.298971 2.456944 -6.107144
| 58> H -3.031942 1.361988 -7.290849
| 59> H -3.906105 1.765087 -5.803571
| 60> H -1.292176 -1.571564 -4.479562
| 61> H -0.805957 -1.760773 -2.099896
| 62> H -1.827356 -0.19727 2.754555
| 63> H -3.203211 -1.823296 3.953854
| 64> H -5.74413 -5.321653 3.05684
| 65> H -5.979745 -4.370073 1.581933
| 66> H -4.564078 -5.430735 1.739927
| 67> H -4.2168 -3.676394 0.222712
| 68> H -2.85692 -2.065038 -0.946014
| 69> H 4.485583 0.78975 0.809345
| 70> H 6.434861 2.258932 0.571107
| 71> H 8.574898 1.357573 -0.270677
| 72> H 8.763668 -1.038097 -0.850521
| 73> H 6.813493 -2.526944 -0.589584
| 74> H 2.252111 -2.73254 1.724086
| 75> H -0.080755 -1.90098 1.573626
| 76> H 0.896874 0.750113 -1.402718
| 77> H 3.276597 0.080049 -1.353381
| 78> *
| 79> 
| 80>                          ****END OF INPUT****
================================================================================

                       ****************************
                       * Single Point Calculation *
                       ****************************

---------------------------------
CARTESIAN COORDINATES (ANGSTROEM)
---------------------------------
  C     -2.572072    5.843807    2.971184
  O     -1.346611    5.228777    2.680725
  C     -1.363975    4.018874    2.077228
  C     -2.517119    3.335326    1.704573
  C     -2.413674    2.095739    1.087596
  C     -0.129902    3.429988    1.826401
  C     -0.059422    2.193863    1.204173
  C     -1.191930    1.482651    0.801802
  B     -1.222234    0.058009    0.028297
  C     -1.528340    0.199942   -1.558032
  C     -2.082863    1.346295   -2.117429
  C     -2.369775    1.464788   -3.474686
  C     -2.089921    0.411930   -4.335112
  O     -2.321941    0.422595   -5.666254
  C     -2.917202    1.560968   -6.227254
  C     -1.519070   -0.748448   -3.813357
  C     -1.252778   -0.838980   -2.460776
  C     -2.183208   -1.001536    0.789975
  C     -2.332547   -0.969981    2.185356
  C     -3.109867   -1.879654    2.876385
  C     -3.796251   -2.877788    2.186083
  O     -4.533602   -3.726251    2.934407
  C     -5.231464   -4.753494    2.283380
  C     -3.688155   -2.930862    0.802055
  C     -2.895222   -2.002049    0.134070
  O      4.541011   -3.088897    0.428115
  C      4.374814   -1.904963    0.263784
  C      5.511615   -0.966944    0.096418
  C      5.413201    0.383589    0.427022
  C      6.515378    1.214527    0.301942
  C      7.717601    0.706030   -0.165055
  C      7.824459   -0.640249   -0.490618
  C      6.731834   -1.475436   -0.349179
  C      2.972394   -1.372670    0.218159
  C      2.002532   -1.942126    1.030763
  C      0.700781   -1.490698    0.951194
  N      0.331983   -0.538172    0.094639
  C      1.250648   -0.001901   -0.712117
  C      2.575596   -0.383779   -0.673580
  H     -2.339839    6.792778    3.450338
  H     -3.161403    6.045754    2.070504
  H     -3.184172    5.250076    3.658269
  H     -3.501572    3.744425    1.890169
  H     -3.332480    1.583540    0.824163
  H      0.772210    3.948169    2.127112
  H      0.934132    1.787729    1.048101
  H     -2.300382    2.196312   -1.482991
  H     -2.803264    2.388299   -3.835169
  H     -2.298971    2.456944   -6.107144
  H     -3.031942    1.361988   -7.290849
  H     -3.906105    1.765087   -5.803571
  H     -1.292176   -1.571564   -4.479562
  H     -0.805957   -1.760773   -2.099896
  H     -1.827356   -0.197270    2.754555
  H     -3.203211   -1.823296    3.953854
  H     -5.744130   -5.321653    3.056840
  H     -5.979745   -4.370073    1.581933
  H     -4.564078   -5.430735    1.739927
  H     -4.216800   -3.676394    0.222712
  H     -2.856920   -2.065038   -0.946014
  H      4.485583    0.789750    0.809345
  H      6.434861    2.258932    0.571107
  H      8.574898    1.357573   -0.270677
  H      8.763668   -1.038097   -0.850521
  H      6.813493   -2.526944   -0.589584
  H      2.252111   -2.732540    1.724086
  H     -0.080755   -1.900980    1.573626
  H      0.896874    0.750113   -1.402718
  H      3.276597    0.080049   -1.353381

----------------------------
CARTESIAN COORDINATES (A.U.)
----------------------------
  NO LB      ZA    FRAG     MASS         X           Y           Z
   0 C     6.0000    0    12.011   -4.860512   11.043195    5.614724
   1 O     8.0000    0    15.999   -2.544726    9.880957    5.065836
   2 C     6.0000    0    12.011   -2.577539    7.594571    3.925392
   3 C     6.0000    0    12.011   -4.756666    6.302853    3.221176
   4 C     6.0000    0    12.011   -4.561183    3.960373    2.055259
   5 C     6.0000    0    12.011   -0.245479    6.481738    3.451398
   6 C     6.0000    0    12.011   -0.112291    4.145800    2.275557
   7 C     6.0000    0    12.011   -2.252421    2.801804    1.515186
   8 B     5.0000    0    10.810   -2.309688    0.109621    0.053474
   9 C     6.0000    0    12.011   -2.888144    0.377836   -2.944254
  10 C     6.0000    0    12.011   -3.936041    2.544129   -4.001361
  11 C     6.0000    0    12.011   -4.478226    2.768048   -6.566205
  12 C     6.0000    0    12.011   -3.949378    0.778435   -8.192174
  13 O     8.0000    0    15.999   -4.387833    0.798589  -10.707668
  14 C     6.0000    0    12.011   -5.512713    2.949802  -11.767805
  15 C     6.0000    0    12.011   -2.870626   -1.414362   -7.206200
  16 C     6.0000    0    12.011   -2.367407   -1.585442   -4.650193
  17 C     6.0000    0    12.011   -4.125665   -1.892629    1.492836
  18 C     6.0000    0    12.011   -4.407875   -1.832998    4.129724
  19 C     6.0000    0    12.011   -5.876797   -3.552031    5.435580
  20 C     6.0000    0    12.011   -7.173875   -5.438231    4.131098
  21 O     8.0000    0    15.999   -8.567266   -7.041594    5.545226
  22 C     6.0000    0    12.011   -9.886034   -8.982802    4.314963
  23 C     6.0000    0    12.011   -6.969603   -5.538527    1.515664
  24 C     6.0000    0    12.011   -5.471177   -3.783324    0.253356
  25 O     8.0000    0    15.999    8.581267   -5.837169    0.809020
  26 C     6.0000    0    12.011    8.267200   -3.599858    0.498480
  27 C     6.0000    0    12.011   10.415443   -1.827259    0.182204
  28 C     6.0000    0    12.011   10.229467    0.724878    0.806955
  29 C     6.0000    0    12.011   12.312280    2.295123    0.570588
  30 C     6.0000    0    12.011   14.584152    1.334203   -0.311909
  31 C     6.0000    0    12.011   14.786085   -1.209895   -0.927134
  32 C     6.0000    0    12.011   12.721323   -2.788170   -0.659853
  33 C     6.0000    0    12.011    5.617011   -2.593970    0.412261
  34 C     6.0000    0    12.011    3.784237   -3.670086    1.947860
  35 C     6.0000    0    12.011    1.324284   -2.817011    1.797496
  36 N     7.0000    0    14.007    0.627357   -1.016998    0.178842
  37 C     6.0000    0    12.011    2.363382   -0.003592   -1.345706
  38 C     6.0000    0    12.011    4.867171   -0.725237   -1.272882
  39 H     1.0000    0     1.008   -4.421655   12.836490    6.520194
  40 H     1.0000    0     1.008   -5.974186   11.424819    3.912686
  41 H     1.0000    0     1.008   -6.017213    9.921206    6.913127
  42 H     1.0000    0     1.008   -6.617012    7.075938    3.571902
  43 H     1.0000    0     1.008   -6.297475    2.992457    1.557442
  44 H     1.0000    0     1.008    1.459265    7.460958    4.019659
  45 H     1.0000    0     1.008    1.765254    3.378318    1.980624
  46 H     1.0000    0     1.008   -4.347092    4.150428   -2.802447
  47 H     1.0000    0     1.008   -5.297401    4.513231   -7.247419
  48 H     1.0000    0     1.008   -4.344426    4.642951  -11.540830
  49 H     1.0000    0     1.008   -5.729540    2.573784  -13.777708
  50 H     1.0000    0     1.008   -7.381469    3.335531  -10.967160
  51 H     1.0000    0     1.008   -2.441859   -2.969826   -8.465145
  52 H     1.0000    0     1.008   -1.523038   -3.327379   -3.968228
  53 H     1.0000    0     1.008   -3.453202   -0.372786    5.205355
  54 H     1.0000    0     1.008   -6.053192   -3.445530    7.471701
  55 H     1.0000    0     1.008  -10.854833  -10.056467    5.776590
  56 H     1.0000    0     1.008  -11.300080   -8.258241    2.989420
  57 H     1.0000    0     1.008   -8.624857  -10.262602    3.287986
  58 H     1.0000    0     1.008   -7.968597   -6.947378    0.420865
  59 H     1.0000    0     1.008   -5.398796   -3.902356   -1.787707
  60 H     1.0000    0     1.008    8.476523    1.492411    1.529440
  61 H     1.0000    0     1.008   12.160125    4.268763    1.079236
  62 H     1.0000    0     1.008   16.204209    2.565441   -0.511505
  63 H     1.0000    0     1.008   16.560932   -1.961719   -1.607252
  64 H     1.0000    0     1.008   12.875636   -4.775232   -1.114152
  65 H     1.0000    0     1.008    4.255873   -5.163752    3.258050
  66 H     1.0000    0     1.008   -0.152605   -3.592332    2.973722
  67 H     1.0000    0     1.008    1.694846    1.417508   -2.650753
  68 H     1.0000    0     1.008    6.191871    0.151271   -2.557519

--------------------------------
INTERNAL COORDINATES (ANGSTROEM)
--------------------------------
 C      0   0   0     0.000000000000     0.00000000     0.00000000
 O      1   0   0     1.401564480893     0.00000000     0.00000000
 C      2   1   0     1.352174325638   118.28853545     0.00000000
 C      3   2   1     1.391348519266   124.73462516     0.74386672
 C      4   3   2     1.388501860684   119.72657196   179.91346750
 C      3   2   1     1.390193178754   116.62555801   181.09263301
 C      6   3   2     1.385691210194   120.26812658   180.37253037
 C      5   4   3     1.396500450310   123.23315271   359.47298521
 B      8   5   4     1.621367677489   117.84173505   182.21564254
 C      9   8   5     1.621815512309   113.15762835    76.69939106
 C     10   9   8     1.390879564070   122.73588624   342.48263314
 C     11  10   9     1.392302284291   122.98139644   181.17848093
 C     12  11  10     1.388222291622   119.87537711   359.41683315
 O     13  12  11     1.351253509446   124.74873107   180.29062351
 C     14  13  12     1.401766651497   118.26679845   358.40336218
 C     13  12  11     1.394480637051   118.79777795   359.82016649
 C     16  13  12     1.381514688249   119.98394832     0.54289659
 C      9   8   5     1.620573975906   111.18238084   307.04289532
 C     18   9   8     1.403704381309   121.03808509   328.10559483
 C     19  18   9     1.381757007643   122.83313483   181.99300135
 C     20  19  18     1.394242205865   120.04276093   359.49599078
 O     21  20  19     1.350394301138   116.37511196   180.01507903
 C     22  21  20     1.402168216307   118.34438639   180.56439909
 C     21  20  19     1.389257031465   118.83507524   359.61692138
 C     24  21  20     1.391991484055   119.79528451     0.51102552
 O      9   8   5     6.578591394515   112.02104225   195.76733936
 C     26   9   8     1.206783260045    53.25715110   320.13450088
 C     27  26   9     1.483309656113   122.02076061   181.27942495
 C     28  27  26     1.393887981260   122.12991016   205.88232897
 C     29  28  27     1.385964323341   120.22106913   177.57447057
 C     30  29  28     1.386360537071   120.00764155     0.59891312
 C     31  30  29     1.389200145758   120.07274255   359.10993526
 C     32  31  30     1.382523672967   120.04446924     0.00000000
 C     27  26   9     1.500732932561   118.73831482     0.82073961
 C     34  27  26     1.387529349526   119.32887122    35.59058129
 C     35  34  27     1.380099319232   119.42565314   182.61168287
 N     36  35  34     1.333043215168   122.12221944     1.44408218
 C     37  36  35     1.335060751877   119.00841222   359.94370114
 C     38  37  36     1.379421295311   122.19824868   358.83987385
 H      1   2   3     1.088148280726   106.69887607   179.85638792
 H      1   2   3     1.095133818659   112.39555214   298.58448683
 H      1   2   3     1.095111276349   112.38462528    61.16006635
 H      4   3   2     1.082107007752   121.48868321   359.50009131
 H      5   4   3     1.084411926680   117.80685513   179.07735596
 H      6   3   2     1.082933384297   119.12285580     0.61484448
 H      7   6   3     1.084644110322   116.43796367   180.60530579
 H     11  10   9     1.082753430608   119.43691029     1.63941308
 H     12  11  10     1.082004285357   118.68374945   179.85093626
 H     15  14  13     1.095175316576   112.38194319    62.27834751
 H     15  14  13     1.088114255042   106.70618382   181.01439326
 H     15  14  13     1.095034699934   112.33526440   299.77710630
 H     16  13  12     1.082972732213   119.21279957   180.38444498
 H     17  16  13     1.086087342386   117.40220663   180.13022934
 H     19  18   9     1.084567995841   119.21999951     2.54354383
 H     20  19  18     1.082972193762   120.78350508   180.11455189
 H     23  22  21     1.088058568477   106.67863626   179.33876368
 H     23  22  21     1.094972151249   112.39679234   298.05900644
 H     23  22  21     1.095171497203   112.34242606    60.59556832
 H     24  21  20     1.082091405889   121.44535555   181.12195122
 H     25  24  21     1.082596926091   117.39317121   181.37551372
 H     29  28  27     1.082410637500   120.52066325   359.26203788
 H     30  29  28     1.081533443098   119.82102231   180.70386559
 H     31  30  29     1.081953064574   119.94228741   179.45289228
 H     32  31  30     1.081631520525   120.08132007   180.29058571
 H     33  32  31     1.081726319533   120.32011499   180.76825573
 H     35  34  27     1.080620539767   120.96440994     2.63569233
 H     36  35  34     1.080070105801   121.67091175   180.63441077
 H     38  37  36     1.080560428885   116.13395687   178.68104498
 H     39  38  37     1.081049589605   119.11021326   179.69573863

---------------------------
INTERNAL COORDINATES (A.U.)
---------------------------
 C      0   0   0     0.000000000000     0.00000000     0.00000000
 O      1   0   0     2.648573027920     0.00000000     0.00000000
 C      2   1   0     2.555239160775   118.28853545     0.00000000
 C      3   2   1     2.629267658250   124.73462516     0.74386672
 C      4   3   2     2.623888253133   119.72657196   179.91346750
 C      3   2   1     2.627084381090   116.62555801   181.09263301
 C      6   3   2     2.618576893449   120.26812658   180.37253037
 C      5   4   3     2.639003396984   123.23315271   359.47298521
 B      8   5   4     3.063940872846   117.84173505   182.21564254
 C      9   8   5     3.064787158009   113.15762835    76.69939106
 C     10   9   8     2.628381461360   122.73588624   342.48263314
 C     11  10   9     2.631070012943   122.98139644   181.17848093
 C     12  11  10     2.623359944170   119.87537711   359.41683315
 O     13  12  11     2.553499070352   124.74873107   180.29062351
 C     14  13  12     2.648955074994   118.26679845   358.40336218
 C     13  12  11     2.635186503082   118.79777795   359.82016649
 C     16  13  12     2.610684410781   119.98394832     0.54289659
 C      9   8   5     3.062440994223   111.18238084   307.04289532
 C     18   9   8     2.652616853660   121.03808509   328.10559483
 C     19  18   9     2.611142328071   122.83313483   181.99300135
 C     20  19  18     2.634735933440   120.04276093   359.49599078
 O     21  20  19     2.551875401959   116.37511196   180.01507903
 C     22  21  20     2.649713922509   118.34438639   180.56439909
 C     21  20  19     2.625315319094   118.83507524   359.61692138
 C     24  21  20     2.630482685615   119.79528451     0.51102552
 O      9   8   5    12.431736082604   112.02104225   195.76733936
 C     26   9   8     2.280489864487    53.25715110   320.13450088
 C     27  26   9     2.803049021854   122.02076061   181.27942495
 C     28  27  26     2.634066545946   122.12991016   205.88232897
 C     29  28  27     2.619093002499   120.22106913   177.57447057
 C     30  29  28     2.619841737940   120.00764155     0.59891312
 C     31  30  29     2.625207820686   120.07274255   359.10993526
 C     32  31  30     2.612591115571   120.04446924     0.00000000
 C     27  26   9     2.835974242697   118.73831482     0.82073961
 C     34  27  26     2.622050473382   119.32887122    35.59058129
 C     35  34  27     2.608009750961   119.42565314   182.61168287
 N     36  35  34     2.519086601349   122.12221944     1.44408218
 C     37  36  35     2.522899193194   119.00841222   359.94370114
 C     38  37  36     2.606728471436   122.19824868   358.83987385
 H      1   2   3     2.056302243669   106.69887607   179.85638792
 H      1   2   3     2.069502997260   112.39555214   298.58448683
 H      1   2   3     2.069460398468   112.38462528    61.16006635
 H      4   3   2     2.044885892248   121.48868321   359.50009131
 H      5   4   3     2.049241557783   117.80685513   179.07735596
 H      6   3   2     2.046447517603   119.12285580     0.61484448
 H      7   6   3     2.049680321279   116.43796367   180.60530579
 H     11  10   9     2.046107454413   119.43691029     1.63941308
 H     12  11  10     2.044691775054   118.68374945   179.85093626
 H     15  14  13     2.069581416959   112.38194319    62.27834751
 H     15  14  13     2.056237944445   106.70618382   181.01439326
 H     15  14  13     2.069315690015   112.33526440   299.77710630
 H     16  13  12     2.046521874387   119.21279957   180.38444498
 H     17  16  13     2.052407634627   117.40220663   180.13022934
 H     19  18   9     2.049536485756   119.21999951     2.54354383
 H     20  19  18     2.046520856861   120.78350508   180.11455189
 H     23  22  21     2.056132712089   106.67863626   179.33876368
 H     23  22  21     2.069197490131   112.39679234   298.05900644
 H     23  22  21     2.069574199390   112.34242606    60.59556832
 H     24  21  20     2.044856408999   121.44535555   181.12195122
 H     25  24  21     2.045811703736   117.39317121   181.37551372
 H     29  28  27     2.045459669319   120.52066325   359.26203788
 H     30  29  28     2.043802012132   119.82102231   180.70386559
 H     31  30  29     2.044594981802   119.94228741   179.45289228
 H     32  31  30     2.043987351610   120.08132007   180.29058571
 H     33  32  31     2.044166495772   120.32011499   180.76825573
 H     35  34  27     2.042076874850   120.96440994     2.63569233
 H     36  35  34     2.041036705398   121.67091175   180.63441077
 H     38  37  36     2.041963281746   116.13395687   178.68104498
 H     39  38  37     2.042887661542   119.11021326   179.69573863

---------------------
BASIS SET INFORMATION
---------------------
There are 5 groups of distinct atoms

 Group   1 Type C   : 7s4p1d contracted to 3s2p1d pattern {511/31/1}
 Group   2 Type O   : 7s4p1d contracted to 3s2p1d pattern {511/31/1}
 Group   3 Type B   : 7s4p1d contracted to 3s2p1d pattern {511/31/1}
 Group   4 Type N   : 7s4p1d contracted to 3s2p1d pattern {511/31/1}
 Group   5 Type H   : 4s1p contracted to 2s1p pattern {31/1}

Atom   0C    basis set group =>   1
Atom   1O    basis set group =>   2
Atom   2C    basis set group =>   1
Atom   3C    basis set group =>   1
Atom   4C    basis set group =>   1
Atom   5C    basis set group =>   1
Atom   6C    basis set group =>   1
Atom   7C    basis set group =>   1
Atom   8B    basis set group =>   3
Atom   9C    basis set group =>   1
Atom  10C    basis set group =>   1
Atom  11C    basis set group =>   1
Atom  12C    basis set group =>   1
Atom  13O    basis set group =>   2
Atom  14C    basis set group =>   1
Atom  15C    basis set group =>   1
Atom  16C    basis set group =>   1
Atom  17C    basis set group =>   1
Atom  18C    basis set group =>   1
Atom  19C    basis set group =>   1
Atom  20C    basis set group =>   1
Atom  21O    basis set group =>   2
Atom  22C    basis set group =>   1
Atom  23C    basis set group =>   1
Atom  24C    basis set group =>   1
Atom  25O    basis set group =>   2
Atom  26C    basis set group =>   1
Atom  27C    basis set group =>   1
Atom  28C    basis set group =>   1
Atom  29C    basis set group =>   1
Atom  30C    basis set group =>   1
Atom  31C    basis set group =>   1
Atom  32C    basis set group =>   1
Atom  33C    basis set group =>   1
Atom  34C    basis set group =>   1
Atom  35C    basis set group =>   1
Atom  36N    basis set group =>   4
Atom  37C    basis set group =>   1
Atom  38C    basis set group =>   1
Atom  39H    basis set group =>   5
Atom  40H    basis set group =>   5
Atom  41H    basis set group =>   5
Atom  42H    basis set group =>   5
Atom  43H    basis set group =>   5
Atom  44H    basis set group =>   5
Atom  45H    basis set group =>   5
Atom  46H    basis set group =>   5
Atom  47H    basis set group =>   5
Atom  48H    basis set group =>   5
Atom  49H    basis set group =>   5
Atom  50H    basis set group =>   5
Atom  51H    basis set group =>   5
Atom  52H    basis set group =>   5
Atom  53H    basis set group =>   5
Atom  54H    basis set group =>   5
Atom  55H    basis set group =>   5
Atom  56H    basis set group =>   5
Atom  57H    basis set group =>   5
Atom  58H    basis set group =>   5
Atom  59H    basis set group =>   5
Atom  60H    basis set group =>   5
Atom  61H    basis set group =>   5
Atom  62H    basis set group =>   5
Atom  63H    basis set group =>   5
Atom  64H    basis set group =>   5
Atom  65H    basis set group =>   5
Atom  66H    basis set group =>   5
Atom  67H    basis set group =>   5
Atom  68H    basis set group =>   5
------------------------------------------------------------------------------
                           ORCA GTO INTEGRAL CALCULATION
------------------------------------------------------------------------------
------------------------------------------------------------------------------
                   ___                                                        
                  /   \      - P O W E R E D   B Y -                         
                 /     \                                                     
                 |  |  |   _    _      __       _____    __    __             
                 |  |  |  | |  | |    /  \     |  _  \  |  |  /  |          
                  \  \/   | |  | |   /    \    | | | |  |  | /  /          
                 / \  \   | |__| |  /  /\  \   | |_| |  |  |/  /          
                |  |  |   |  __  | /  /__\  \  |    /   |      \           
                |  |  |   | |  | | |   __   |  |    \   |  |\   \          
                \     /   | |  | | |  |  |  |  | |\  \  |  | \   \       
                 \___/    |_|  |_| |__|  |__|  |_| \__\ |__|  \__/        
                                                                              
                      - O R C A' S   B I G   F R I E N D -                    
                                      &                                       
                       - I N T E G R A L  F E E D E R -                       
                                                                              
 v1 FN, 2020, v2 2021                                                         
------------------------------------------------------------------------------


Reading SHARK input file START_a001_b004_2.SHARKINP.tmp ... ok
----------------------
SHARK INTEGRAL PACKAGE
----------------------

Number of atoms                             ...     69
Number of basis functions                   ...    696
Number of shells                            ...    324
Maximum angular momentum                    ...      2
Integral batch strategy                     ... SHARK/LIBINT Hybrid
RI-J (if used) integral strategy            ... SPLIT-RIJ (Revised 2003 algorithm where possible)
Printlevel                                  ...      1
Contraction scheme used                     ... SEGMENTED contraction
Coulomb Range Separation                    ... NOT USED
Exchange Range Separation                   ... NOT USED
Finite Nucleus Model                        ... NOT USED
Auxiliary Coulomb fitting basis             ... NOT available
Auxiliary J/K fitting basis                 ... NOT available
Auxiliary Correlation fitting basis         ... NOT available
Auxiliary 'external' fitting basis          ... NOT available
Integral threshold                          ...     1.000000e-10
Primitive cut-off                           ...     1.000000e-11
Primitive pair pre-selection threshold      ...     1.000000e-11

Calculating pre-screening integrals         ... done (  0.2 sec) Dimension = 324
Organizing shell pair data                  ... done (  0.1 sec)
Shell pair information
Total number of shell pairs                 ...     52650
Shell pairs after pre-screening             ...     27336
Total number of primitive shell pairs       ...    191868
Primitive shell pairs kept                  ...     59634
          la=0 lb=0:   8461 shell pairs
          la=1 lb=0:  10285 shell pairs
          la=1 lb=1:   3212 shell pairs
          la=2 lb=0:   3174 shell pairs
          la=2 lb=1:   1927 shell pairs
          la=2 lb=2:    277 shell pairs

Calculating one electron integrals          ... done (  0.3 sec)
Calculating Nuclear repulsion               ... done (  0.0 sec) ENN=   4027.294013207720 Eh

SHARK setup successfully completed in   1.0 seconds

Maximum memory used throughout the entire GTOINT-calculation: 153.3 MB
-------------------------------------------------------------------------------
                                 ORCA SCF
-------------------------------------------------------------------------------

------------
SCF SETTINGS
------------
Hamiltonian:
 Ab initio Hamiltonian  Method          .... Hartree-Fock(GTOs)


General Settings:
 Integral files         IntName         .... START_a001_b004_2
 Hartree-Fock type      HFTyp           .... RHF
 Total Charge           Charge          ....    0
 Multiplicity           Mult            ....    1
 Number of Electrons    NEL             ....  272
 Basis Dimension        Dim             ....  696
 Nuclear Repulsion      ENuc            ....   4027.2940132077 Eh

Convergence Acceleration:
 DIIS                   CNVDIIS         .... on
   Start iteration      DIISMaxIt       ....    12
   Startup error        DIISStart       ....  0.200000
   # of expansion vecs  DIISMaxEq       ....     5
   Bias factor          DIISBfac        ....   1.050
   Max. coefficient     DIISMaxC        ....  10.000
 Trust-Rad. Augm. Hess. CNVTRAH         .... auto
   Auto Start mean grad. ratio tolernc. ....  1.125000
   Auto Start start iteration           ....    20
   Auto Start num. interpolation iter.  ....    10
   Max. Number of Micro iterations      ....    16
   Max. Number of Macro iterations      .... Maxiter - #DIIS iter
   Number of Davidson start vectors     ....     2
   Converg. threshold I  (grad. norm)   ....   5.000e-05
   Converg. threshold II (energy diff.) ....   1.000e-06
   Grad. Scal. Fac. for Micro threshold ....   0.100
   Minimum threshold for Micro iter.    ....   0.010
   NR start threshold (gradient norm)   ....   0.001
   Initial trust radius                 ....   0.400
   Minimum AH scaling param. (alpha)    ....   1.000
   Maximum AH scaling param. (alpha)    .... 1000.000
   Orbital update algorithm             .... Taylor
   White noise on init. David. guess    .... on
   Maximum white noise                  ....   0.010
   Quad. conv. algorithm                .... NR
 SOSCF                  CNVSOSCF        .... on
   Start iteration      SOSCFMaxIt      ....   150
   Startup grad/error   SOSCFStart      ....  0.003300
 Level Shifting         CNVShift        .... on
   Level shift para.    LevelShift      ....    0.2500
   Turn off err/grad.   ShiftErr        ....    0.0010
 Zerner damping         CNVZerner       .... off
 Static damping         CNVDamp         .... on
   Fraction old density DampFac         ....    0.7000
   Max. Damping (<1)    DampMax         ....    0.9800
   Min. Damping (>=0)   DampMin         ....    0.0000
   Turn off err/grad.   DampErr         ....    0.1000
 Fernandez-Rico         CNVRico         .... off

SCF Procedure:
 Maximum # iterations   MaxIter         ....    10
 SCF integral mode      SCFMode         .... Direct
   Integral package                     .... SHARK and LIBINT hybrid scheme
 Reset frequency        DirectResetFreq ....    20
 Integral Threshold     Thresh          ....  1.000e-10 Eh
 Primitive CutOff       TCut            ....  1.000e-11 Eh

Convergence Tolerance:
 Convergence Check Mode ConvCheckMode   .... Total+1el-Energy
 Convergence forced     ConvForced      .... 0
 Energy Change          TolE            ....  1.000e-06 Eh
 1-El. energy change                    ....  1.000e-03 Eh
 Orbital Gradient       TolG            ....  5.000e-05
 Orbital Rotation angle TolX            ....  5.000e-05
 DIIS Error             TolErr          ....  1.000e-06


Diagonalization of the overlap matrix:
Smallest eigenvalue                        ... 2.170e-04
Time for diagonalization                   ...    0.080 sec
Threshold for overlap eigenvalues          ... 1.000e-08
Number of eigenvalues below threshold      ... 0
Time for construction of square roots      ...    0.028 sec
Total time needed                          ...    0.109 sec

Time for model grid setup =    3.824 sec

------------------------------
INITIAL GUESS: MODEL POTENTIAL
------------------------------
Loading Hartree-Fock densities                     ... done
Calculating cut-offs                               ... done
Initializing the effective Hamiltonian             ... done
Setting up the integral package (SHARK)            ... done
Starting the Coulomb interaction                   ... done (   3.6 sec)
Reading the grid                                   ... done
Mapping shells                                     ... done
Starting the XC term evaluation                    ... done (   1.0 sec)
Transforming the Hamiltonian                       ... done (   0.0 sec)
Diagonalizing the Hamiltonian                      ... done (   0.1 sec)
Back transforming the eigenvectors                 ... done (   0.0 sec)
Now organizing SCF variables                       ... done
                      ------------------
                      INITIAL GUESS DONE (   8.5 sec)
                      ------------------

 Error  (ORCA_SCF): Not enough memory available!
                    Memory available for SCF calculation:           20 MB
                    Memory needed (estimated)           :          285 MB
       ====>        Please increase MaxCore to more than:          285 MB


Error (ORCA_SCF): ... aborting the run

ORCA finished by error termination in SCF
Calling Command: /opt/bwhpc/common/chem/orca/5.0.2_static/orca_scf START_a001_b004_2.gbw b 
[file orca_tools/qcmsg.cpp, line 465]: 
  .... aborting the run

[file orca_tools/qcmsg.cpp, line 465]: 
  .... aborting the run

