
                                 *****************
                                 * O   R   C   A *
                                 *****************

                                            #,                                       
                                            ###                                      
                                            ####                                     
                                            #####                                    
                                            ######                                   
                                           ########,                                 
                                     ,,################,,,,,                         
                               ,,#################################,,                 
                          ,,##########################################,,             
                       ,#########################################, ''#####,          
                    ,#############################################,,   '####,        
                  ,##################################################,,,,####,       
                ,###########''''           ''''###############################       
              ,#####''   ,,,,##########,,,,          '''####'''          '####       
            ,##' ,,,,###########################,,,                        '##       
           ' ,,###''''                  '''############,,,                           
         ,,##''                                '''############,,,,        ,,,,,,###''
      ,#''                                            '''#######################'''  
     '                                                          ''''####''''         
             ,#######,   #######,   ,#######,      ##                                
            ,#'     '#,  ##    ##  ,#'     '#,    #''#        ######   ,####,        
            ##       ##  ##   ,#'  ##            #'  '#       #        #'  '#        
            ##       ##  #######   ##           ,######,      #####,   #    #        
            '#,     ,#'  ##    ##  '#,     ,#' ,#      #,         ##   #,  ,#        
             '#######'   ##     ##  '#######'  #'      '#     #####' # '####'        



                  #######################################################
                  #                        -***-                        #
                  #          Department of theory and spectroscopy      #
                  #    Directorship and core code : Frank Neese         #
                  #        Max Planck Institute fuer Kohlenforschung    #
                  #                Kaiser Wilhelm Platz 1               #
                  #                 D-45470 Muelheim/Ruhr               #
                  #                      Germany                        #
                  #                                                     #
                  #                  All rights reserved                #
                  #                        -***-                        #
                  #######################################################


                         Program Version 5.0.2 -  RELEASE  -


 With contributions from (in alphabetic order):
   Daniel Aravena         : Magnetic Suceptibility
   Michael Atanasov       : Ab Initio Ligand Field Theory (pilot matlab implementation)
   Alexander A. Auer      : GIAO ZORA, VPT2 properties, NMR spectrum
   Ute Becker             : Parallelization
   Giovanni Bistoni       : ED, misc. LED, open-shell LED, HFLD
   Martin Brehm           : Molecular dynamics
   Dmytro Bykov           : SCF Hessian
   Vijay G. Chilkuri      : MRCI spin determinant printing, contributions to CSF-ICE
   Dipayan Datta          : RHF DLPNO-CCSD density
   Achintya Kumar Dutta   : EOM-CC, STEOM-CC
   Dmitry Ganyushin       : Spin-Orbit,Spin-Spin,Magnetic field MRCI
   Miquel Garcia          : C-PCM and meta-GGA Hessian, CC/C-PCM, Gaussian charge scheme
   Yang Guo               : DLPNO-NEVPT2, F12-NEVPT2, CIM, IAO-localization
   Andreas Hansen         : Spin unrestricted coupled pair/coupled cluster methods
   Benjamin Helmich-Paris : MC-RPA, TRAH-SCF, COSX integrals
   Lee Huntington         : MR-EOM, pCC
   Robert Izsak           : Overlap fitted RIJCOSX, COSX-SCS-MP3, EOM
   Marcus Kettner         : VPT2
   Christian Kollmar      : KDIIS, OOCD, Brueckner-CCSD(T), CCSD density, CASPT2, CASPT2-K
   Simone Kossmann        : Meta GGA functionals, TD-DFT gradient, OOMP2, MP2 Hessian
   Martin Krupicka        : Initial AUTO-CI
   Lucas Lang             : DCDCAS
   Marvin Lechner         : AUTO-CI (C++ implementation), FIC-MRCC
   Dagmar Lenk            : GEPOL surface, SMD
   Dimitrios Liakos       : Extrapolation schemes; Compound Job, initial MDCI parallelization
   Dimitrios Manganas     : Further ROCIS development; embedding schemes
   Dimitrios Pantazis     : SARC Basis sets
   Anastasios Papadopoulos: AUTO-CI, single reference methods and gradients
   Taras Petrenko         : DFT Hessian,TD-DFT gradient, ASA, ECA, R-Raman, ABS, FL, XAS/XES, NRVS
   Peter Pinski           : DLPNO-MP2, DLPNO-MP2 Gradient
   Christoph Reimann      : Effective Core Potentials
   Marius Retegan         : Local ZFS, SOC
   Christoph Riplinger    : Optimizer, TS searches, QM/MM, DLPNO-CCSD(T), (RO)-DLPNO pert. Triples
   Tobias Risthaus        : Range-separated hybrids, TD-DFT gradient, RPA, STAB
   Michael Roemelt        : Original ROCIS implementation
   Masaaki Saitow         : Open-shell DLPNO-CCSD energy and density
   Barbara Sandhoefer     : DKH picture change effects
   Avijit Sen             : IP-ROCIS
   Kantharuban Sivalingam : CASSCF convergence, NEVPT2, FIC-MRCI
   Bernardo de Souza      : ESD, SOC TD-DFT
   Georgi Stoychev        : AutoAux, RI-MP2 NMR, DLPNO-MP2 response
   Willem Van den Heuvel  : Paramagnetic NMR
   Boris Wezisla          : Elementary symmetry handling
   Frank Wennmohs         : Technical directorship


 We gratefully acknowledge several colleagues who have allowed us to
 interface, adapt or use parts of their codes:
   Stefan Grimme, W. Hujo, H. Kruse, P. Pracht,  : VdW corrections, initial TS optimization,
                  C. Bannwarth, S. Ehlert          DFT functionals, gCP, sTDA/sTD-DF
   Ed Valeev, F. Pavosevic, A. Kumar             : LibInt (2-el integral package), F12 methods
   Garnet Chan, S. Sharma, J. Yang, R. Olivares  : DMRG
   Ulf Ekstrom                                   : XCFun DFT Library
   Mihaly Kallay                                 : mrcc  (arbitrary order and MRCC methods)
   Jiri Pittner, Ondrej Demel                    : Mk-CCSD
   Frank Weinhold                                : gennbo (NPA and NBO analysis)
   Christopher J. Cramer and Donald G. Truhlar   : smd solvation model
   Lars Goerigk                                  : TD-DFT with DH, B97 family of functionals
   V. Asgeirsson, H. Jonsson                     : NEB implementation
   FAccTs GmbH                                   : IRC, NEB, NEB-TS, DLPNO-Multilevel, CI-OPT
                                                   MM, QMMM, 2- and 3-layer-ONIOM, Crystal-QMMM,
                                                   LR-CPCM, SF, NACMEs, symmetry and pop. for TD-DFT,
                                                   nearIR, NL-DFT gradient (VV10), updates on ESD,
                                                   ML-optimized integration grids
   S Lehtola, MJT Oliveira, MAL Marques          : LibXC Library
   Liviu Ungur et al                             : ANISO software


 Your calculation uses the libint2 library for the computation of 2-el integrals
 For citations please refer to: http://libint.valeyev.net

 Your ORCA version has been built with support for libXC version: 5.1.0
 For citations please refer to: https://tddft.org/programs/libxc/

 This ORCA versions uses:
   CBLAS   interface :  Fast vector & matrix operations
   LAPACKE interface :  Fast linear algebra routines
   SCALAPACK package :  Parallel linear algebra routines
   Shared memory     :  Shared parallel matrices
   BLAS/LAPACK       :  OpenBLAS 0.3.15  USE64BITINT DYNAMIC_ARCH NO_AFFINITY Sandybridge SINGLE_THREADED
        Core in use  :  Sandybridge
   Copyright (c) 2011-2014, The OpenBLAS Project




***************************************
The coordinates will be read from file: coord.xyz
***************************************


================================================================================

----- Orbital basis set information -----
Your calculation utilizes the basis: def2-QZVPP
   F. Weigend and R. Ahlrichs, Phys. Chem. Chem. Phys. 7, 3297 (2005).

----- AuxC basis set information -----
Your calculation utilizes the auxiliary basis: def2-QZVPP/C
  H-La, Hf-Rn : A. Hellweg, C. Hattig, S. Hofener and W. Klopper, Theor. Chem. Acc. 117, 587 (2007).
        Ce-Lu : J. Chmela and M. E. Harding, Mol. Phys. (2018).

----- AuxJK basis set information -----
Your calculation utilizes the auxiliary basis: def2/JK
   H-Ba, Hf-Rn: F. Weigend, J. Comput. Chem. 29, 167 (2008).

================================================================================
                                        WARNINGS
                       Please study these warnings very carefully!
================================================================================


WARNING: Post HF methods need fully converged wavefunctions
  ===> : Setting SCFConvForced true
         You can overwrite this default with %scf ConvForced false 


WARNING: MDCI localization with Augmented Hessian Foster-Boys
  ===> : Switching off randomization!

INFO   : the flag for use of the SHARK integral package has been found!

================================================================================
                                       INPUT FILE
================================================================================
NAME = dlpno_qz.inp
|  1> %pal 
|  2> nprocs 12 end
|  3> %maxcore 9000
|  4> 
|  5> !dlpno-ccsd(t) def2-QZVPP def2/JK RIJK def2-QZVPP/C tightscf UNO UCO
|  6> 
|  7> %method 
|  8> 	frozencore FC_ELECTRONS 
|  9> end
| 10> 
| 11> %mdci
| 12> 	# Notwendig, damit UHF und RHF Rechnungen vergleichbar sind.
| 13>    UseFullLmp2Guess False
| 14>    maxiter 100
| 15> end
| 16> 
| 17> %scf
| 18> maxiter 300
| 19> end
| 20> 
| 21> *xyzfile 0 1 coord.xyz
| 22> 
| 23> 
| 24> 
| 25>                          ****END OF INPUT****
================================================================================

                       ****************************
                       * Single Point Calculation *
                       ****************************

---------------------------------
CARTESIAN COORDINATES (ANGSTROEM)
---------------------------------
  P      1.237463    0.700699    0.171728
  C      1.276660   -1.113650    0.461524
  C      2.019561   -1.567125    1.556181
  H      2.546502   -0.851418    2.175264
  C      0.468728    0.794704   -1.494776
  C      0.621083   -2.051089   -0.338219
  H      0.046371   -1.721373   -1.192044
  C      2.086778   -2.920557    1.858012
  H      2.660807   -3.253882    2.712551
  C      1.427298   -3.846255    1.055549
  H      1.485849   -4.902231    1.283475
  C     -1.358871    3.071672    2.249340
  H     -1.477794    4.137426    2.393828
  C     -0.154568    1.219889    1.253385
  C      1.323272    0.687633   -2.596614
  H      2.387716    0.569044   -2.435250
  C     -0.321781    2.592844    1.460304
  H      0.366629    3.288856    0.996830
  C     -1.038012    0.335940    1.874899
  H     -0.922540   -0.729046    1.731970
  C      0.699500   -3.408179   -0.044412
  H      0.187153   -4.123074   -0.675015
  C     -2.068642    0.814486    2.676755
  H     -2.744285    0.116363    3.153596
  C     -0.897627    0.968356   -1.720629
  H     -1.573934    1.058923   -0.882530
  C      0.822966    0.729622   -3.890955
  H      1.497427    0.638908   -4.732214
  C     -2.235124    2.181698    2.862451
  H     -3.038217    2.552250    3.485509
  C     -0.541164    0.900450   -4.104634
  H     -0.932234    0.942679   -5.112476
  C     -1.397636    1.024299   -3.017148
  H     -2.459335    1.161139   -3.176237

----------------------------
CARTESIAN COORDINATES (A.U.)
----------------------------
  NO LB      ZA    FRAG     MASS         X           Y           Z
   0 P    15.0000    0    30.974    2.338466    1.324130    0.324519
   1 C     6.0000    0    12.011    2.412538   -2.104493    0.872155
   2 C     6.0000    0    12.011    3.816417   -2.961438    2.940757
   3 H     1.0000    0     1.008    4.812192   -1.608946    4.110653
   4 C     6.0000    0    12.011    0.885768    1.501773   -2.824717
   5 C     6.0000    0    12.011    1.173678   -3.875997   -0.639142
   6 H     1.0000    0     1.008    0.087628   -3.252924   -2.252637
   7 C     6.0000    0    12.011    3.943440   -5.519053    3.511133
   8 H     1.0000    0     1.008    5.028197   -6.148945    5.125978
   9 C     6.0000    0    12.011    2.697202   -7.268368    1.994699
  10 H     1.0000    0     1.008    2.807848   -9.263874    2.425417
  11 C     6.0000    0    12.011   -2.567894    5.804619    4.250636
  12 H     1.0000    0     1.008   -2.792626    7.818601    4.523679
  13 C     6.0000    0    12.011   -0.292091    2.305256    2.368555
  14 C     6.0000    0    12.011    2.500621    1.299438   -4.906889
  15 H     1.0000    0     1.008    4.512130    1.075338   -4.601956
  16 C     6.0000    0    12.011   -0.608077    4.899764    2.759574
  17 H     1.0000    0     1.008    0.692828    6.215038    1.883736
  18 C     6.0000    0    12.011   -1.961558    0.634834    3.543047
  19 H     1.0000    0     1.008   -1.743348   -1.377697    3.272949
  20 C     6.0000    0    12.011    1.321863   -6.440525   -0.083926
  21 H     1.0000    0     1.008    0.353668   -7.791481   -1.275593
  22 C     6.0000    0    12.011   -3.909167    1.539155    5.058334
  23 H     1.0000    0     1.008   -5.185947    0.219894    5.959434
  24 C     6.0000    0    12.011   -1.696268    1.829927   -3.251518
  25 H     1.0000    0     1.008   -2.974304    2.001075   -1.667740
  26 C     6.0000    0    12.011    1.555180    1.378787   -7.352840
  27 H     1.0000    0     1.008    2.829728    1.207361   -8.942589
  28 C     6.0000    0    12.011   -4.223772    4.122811    5.409249
  29 H     1.0000    0     1.008   -5.741398    4.823053    6.586657
  30 C     6.0000    0    12.011   -1.022652    1.701603   -7.756633
  31 H     1.0000    0     1.008   -1.761668    1.781406   -9.661179
  32 C     6.0000    0    12.011   -2.641149    1.935644   -5.701583
  33 H     1.0000    0     1.008   -4.647470    2.194235   -6.002218

--------------------------------
INTERNAL COORDINATES (ANGSTROEM)
--------------------------------
 P      0   0   0     0.000000000000     0.00000000     0.00000000
 C      1   0   0     1.837765225150     0.00000000     0.00000000
 C      2   1   0     1.398504944223   117.05751441     0.00000000
 H      3   2   1     1.083128605300   119.44302625   359.19100231
 C      1   2   3     1.837667987324   101.67891996   169.15972463
 C      2   1   3     1.395766280274   124.24289972   180.20529243
 H      6   2   1     1.080751454554   119.83707241     0.13258346
 C      3   2   1     1.388307340722   120.79742885   179.08700487
 H      8   3   2     1.082058798843   119.84717504   180.40512628
 C      8   3   2     1.391321815451   120.01855263     0.99987510
 H     10   8   3     1.081880130849   120.14856737   179.42999708
 C      1   2   3     4.083984930699   120.43070517   277.68105987
 H     12   1   2     1.082058142785   135.20287682   167.99934066
 C      1   2   3     1.837740499990   101.66905561   273.86070830
 C      5   1   2     1.398483595879   117.06265147   273.71313710
 H     15   5   1     1.083117176922   119.44048132   359.18938051
 C     12   1   2     1.388312332219    15.36342504   165.91972877
 H     17  12   1     1.083120074114   119.75895150   178.61032610
 C     14   1   2     1.395750557691   124.23646891   349.37517400
 H     19  14   1     1.080720389853   119.83956871     0.07288958
 C     10   8   3     1.389789523928   119.66861511   359.79751877
 H     21  10   8     1.082235371948   120.05747195   179.77056948
 C     19  14   1     1.390747026141   120.52251727   180.15314378
 H     23  19  14     1.082241478013   119.65115078   180.12835194
 C      5   1   2     1.395740295421   124.23734975    93.91924315
 H     25   5   1     1.080742884929   119.83772561     0.14162397
 C     15   5   1     1.388304411419   120.79945068   179.09365789
 H     27  15   5     1.082055437302   119.84681661   180.39491968
 C     23  19  14     1.389772597478   120.28607957     0.35961104
 H     29  23  19     1.081881801820   120.18667133   179.91865811
 C     27  15   5     1.391290929615   120.01576374     0.99057204
 H     31  27  15     1.081880169295   120.15103355   179.43254828
 C     31  27  15     1.389787176061   119.66949627   359.80402619
 H     33  31  27     1.082238312915   120.05346486   179.77017829

---------------------------
INTERNAL COORDINATES (A.U.)
---------------------------
 P      0   0   0     0.000000000000     0.00000000     0.00000000
 C      1   0   0     3.472872973978     0.00000000     0.00000000
 C      2   1   0     2.642791341516   117.05751441     0.00000000
 H      3   2   1     2.046816431832   119.44302625   359.19100231
 C      1   2   3     3.472689221117   101.67891996   169.15972463
 C      2   1   3     2.637616016681   124.24289972   180.20529243
 H      6   2   1     2.042324267945   119.83707241     0.13258346
 C      3   2   1     2.623520663677   120.79742885   179.08700487
 H      8   3   2     2.044794790612   119.84717504   180.40512628
 C      8   3   2     2.629217195353   120.01855263     0.99987510
 H     10   8   3     2.044457157035   120.14856737   179.42999708
 C      1   2   3     7.717613054083   120.43070517   277.68105987
 H     12   1   2     2.044793550843   135.20287682   167.99934066
 C      1   2   3     3.472826250197   101.66905561   273.86070830
 C      5   1   2     2.642750998993   117.06265147   273.71313710
 H     15   5   1     2.046794835328   119.44048132   359.18938051
 C     12   1   2     2.623530096239    15.36342504   165.91972877
 H     17  12   1     2.046800310228   119.75895150   178.61032610
 C     14   1   2     2.637586305303   124.23646891   349.37517400
 H     19  14   1     2.042265564168   119.83956871     0.07288958
 C     10   8   3     2.626321584016   119.66861511   359.79751877
 H     21  10   8     2.045128465425   120.05747195   179.77056948
 C     19  14   1     2.628131000971   120.52251727   180.15314378
 H     23  19  14     2.045140004214   119.65115078   180.12835194
 C      5   1   2     2.637566912424   124.23734975    93.91924315
 H     25   5   1     2.042308073700   119.83772561     0.14162397
 C     15   5   1     2.623515128097   120.79945068   179.09365789
 H     27  15   5     2.044788438222   119.84681661   180.39491968
 C     23  19  14     2.626289597663   120.28607957     0.35961104
 H     29  23  19     2.044460314714   120.18667133   179.91865811
 C     27  15   5     2.629158829581   120.01576374     0.99057204
 H     31  27  15     2.044457229688   120.15103355   179.43254828
 C     31  27  15     2.626317147192   119.66949627   359.80402619
 H     33  31  27     2.045134023047   120.05346486   179.77017829

---------------------
BASIS SET INFORMATION
---------------------
There are 3 groups of distinct atoms

 Group   1 Type P   : 20s14p4d2f1g contracted to 9s6p4d2f1g pattern {1031111111/821111/1111/11/1}
 Group   2 Type C   : 15s8p3d2f1g contracted to 7s4p3d2f1g pattern {8211111/5111/111/11/1}
 Group   3 Type H   : 7s3p2d1f contracted to 4s3p2d1f pattern {4111/111/11/1}

Atom   0P    basis set group =>   1
Atom   1C    basis set group =>   2
Atom   2C    basis set group =>   2
Atom   3H    basis set group =>   3
Atom   4C    basis set group =>   2
Atom   5C    basis set group =>   2
Atom   6H    basis set group =>   3
Atom   7C    basis set group =>   2
Atom   8H    basis set group =>   3
Atom   9C    basis set group =>   2
Atom  10H    basis set group =>   3
Atom  11C    basis set group =>   2
Atom  12H    basis set group =>   3
Atom  13C    basis set group =>   2
Atom  14C    basis set group =>   2
Atom  15H    basis set group =>   3
Atom  16C    basis set group =>   2
Atom  17H    basis set group =>   3
Atom  18C    basis set group =>   2
Atom  19H    basis set group =>   3
Atom  20C    basis set group =>   2
Atom  21H    basis set group =>   3
Atom  22C    basis set group =>   2
Atom  23H    basis set group =>   3
Atom  24C    basis set group =>   2
Atom  25H    basis set group =>   3
Atom  26C    basis set group =>   2
Atom  27H    basis set group =>   3
Atom  28C    basis set group =>   2
Atom  29H    basis set group =>   3
Atom  30C    basis set group =>   2
Atom  31H    basis set group =>   3
Atom  32C    basis set group =>   2
Atom  33H    basis set group =>   3
---------------------------------
AUXILIARY/C BASIS SET INFORMATION
---------------------------------
There are 3 groups of distinct atoms

 Group   1 Type P   : 12s10p9d6f3g1h contracted to 12s10p9d6f3g1h pattern {111111111111/1111111111/111111111/111111/111/1}
 Group   2 Type C   : 9s8p7d5f3g1h contracted to 9s8p7d5f3g1h pattern {111111111/11111111/1111111/11111/111/1}
 Group   3 Type H   : 6s4p3d2f1g contracted to 6s4p3d2f1g pattern {111111/1111/111/11/1}

Atom   0P    basis set group =>   1
Atom   1C    basis set group =>   2
Atom   2C    basis set group =>   2
Atom   3H    basis set group =>   3
Atom   4C    basis set group =>   2
Atom   5C    basis set group =>   2
Atom   6H    basis set group =>   3
Atom   7C    basis set group =>   2
Atom   8H    basis set group =>   3
Atom   9C    basis set group =>   2
Atom  10H    basis set group =>   3
Atom  11C    basis set group =>   2
Atom  12H    basis set group =>   3
Atom  13C    basis set group =>   2
Atom  14C    basis set group =>   2
Atom  15H    basis set group =>   3
Atom  16C    basis set group =>   2
Atom  17H    basis set group =>   3
Atom  18C    basis set group =>   2
Atom  19H    basis set group =>   3
Atom  20C    basis set group =>   2
Atom  21H    basis set group =>   3
Atom  22C    basis set group =>   2
Atom  23H    basis set group =>   3
Atom  24C    basis set group =>   2
Atom  25H    basis set group =>   3
Atom  26C    basis set group =>   2
Atom  27H    basis set group =>   3
Atom  28C    basis set group =>   2
Atom  29H    basis set group =>   3
Atom  30C    basis set group =>   2
Atom  31H    basis set group =>   3
Atom  32C    basis set group =>   2
Atom  33H    basis set group =>   3
----------------------------------
AUXILIARY/JK BASIS SET INFORMATION
----------------------------------
There are 3 groups of distinct atoms

 Group   1 Type P   : 16s12p10d4f1g contracted to 13s11p9d4f1g pattern {4111111111111/21111111111/211111111/1111/1}
 Group   2 Type C   : 14s10p6d2f1g contracted to 10s8p5d1f1g pattern {5111111111/31111111/21111/2/1}
 Group   3 Type H   : 4s2p2d contracted to 2s2p2d pattern {31/11/11}

Atom   0P    basis set group =>   1
Atom   1C    basis set group =>   2
Atom   2C    basis set group =>   2
Atom   3H    basis set group =>   3
Atom   4C    basis set group =>   2
Atom   5C    basis set group =>   2
Atom   6H    basis set group =>   3
Atom   7C    basis set group =>   2
Atom   8H    basis set group =>   3
Atom   9C    basis set group =>   2
Atom  10H    basis set group =>   3
Atom  11C    basis set group =>   2
Atom  12H    basis set group =>   3
Atom  13C    basis set group =>   2
Atom  14C    basis set group =>   2
Atom  15H    basis set group =>   3
Atom  16C    basis set group =>   2
Atom  17H    basis set group =>   3
Atom  18C    basis set group =>   2
Atom  19H    basis set group =>   3
Atom  20C    basis set group =>   2
Atom  21H    basis set group =>   3
Atom  22C    basis set group =>   2
Atom  23H    basis set group =>   3
Atom  24C    basis set group =>   2
Atom  25H    basis set group =>   3
Atom  26C    basis set group =>   2
Atom  27H    basis set group =>   3
Atom  28C    basis set group =>   2
Atom  29H    basis set group =>   3
Atom  30C    basis set group =>   2
Atom  31H    basis set group =>   3
Atom  32C    basis set group =>   2
Atom  33H    basis set group =>   3


           ************************************************************
           *        Program running with 12 parallel MPI-processes    *
           *              working on a common directory               *
           ************************************************************
------------------------------------------------------------------------------
                           ORCA GTO INTEGRAL CALCULATION
                           -- RI-GTO INTEGRALS CHOSEN --
------------------------------------------------------------------------------
------------------------------------------------------------------------------
                   ___                                                        
                  /   \      - P O W E R E D   B Y -                         
                 /     \                                                     
                 |  |  |   _    _      __       _____    __    __             
                 |  |  |  | |  | |    /  \     |  _  \  |  |  /  |          
                  \  \/   | |  | |   /    \    | | | |  |  | /  /          
                 / \  \   | |__| |  /  /\  \   | |_| |  |  |/  /          
                |  |  |   |  __  | /  /__\  \  |    /   |      \           
                |  |  |   | |  | | |   __   |  |    \   |  |\   \          
                \     /   | |  | | |  |  |  |  | |\  \  |  | \   \       
                 \___/    |_|  |_| |__|  |__|  |_| \__\ |__|  \__/        
                                                                              
                      - O R C A' S   B I G   F R I E N D -                    
                                      &                                       
                       - I N T E G R A L  F E E D E R -                       
                                                                              
 v1 FN, 2020, v2 2021                                                         
------------------------------------------------------------------------------


Reading SHARK input file dlpno_qz.SHARKINP.tmp ... ok
----------------------
SHARK INTEGRAL PACKAGE
----------------------

Number of atoms                             ...     34
Number of basis functions                   ...   1546
Number of shells                            ...    478
Maximum angular momentum                    ...      4
Integral batch strategy                     ... SHARK/LIBINT Hybrid
RI-J (if used) integral strategy            ... SPLIT-RIJ (Revised 2003 algorithm where possible)
Printlevel                                  ...      1
Contraction scheme used                     ... SEGMENTED contraction
Coulomb Range Separation                    ... NOT USED
Exchange Range Separation                   ... NOT USED
Finite Nucleus Model                        ... NOT USED
Auxiliary Coulomb fitting basis             ... NOT available
Auxiliary J/K fitting basis                 ... AVAILABLE
   # of basis functions in Aux-JK           ...   1748
   # of shells in Aux-JK                    ...    578
   Maximum angular momentum in Aux-JK       ...      4
Auxiliary Correlation fitting basis         ... AVAILABLE
   # of basis functions in Aux-C            ...   3545
   # of shells in Aux-C                     ...    875
   Maximum angular momentum in Aux-C        ...      5
Auxiliary 'external' fitting basis          ... NOT available
Integral threshold                          ...     2.500000e-11
Primitive cut-off                           ...     2.500000e-12
Primitive pair pre-selection threshold      ...     2.500000e-12

Calculating pre-screening integrals         ... done (  0.5 sec) Dimension = 478
Organizing shell pair data                  ... done (  3.7 sec)
Shell pair information
Total number of shell pairs                 ...    114481
Shell pairs after pre-screening             ...     74203
Total number of primitive shell pairs       ...    288530
Primitive shell pairs kept                  ...    130920
          la=0 lb=0:  11746 shell pairs
          la=1 lb=0:  16526 shell pairs
          la=1 lb=1:   5834 shell pairs
          la=2 lb=0:  10588 shell pairs
          la=2 lb=1:   7554 shell pairs
          la=2 lb=2:   2434 shell pairs
          la=3 lb=0:   5953 shell pairs
          la=3 lb=1:   4417 shell pairs
          la=3 lb=2:   2761 shell pairs
          la=3 lb=3:    805 shell pairs
          la=4 lb=0:   2232 shell pairs
          la=4 lb=1:   1628 shell pairs
          la=4 lb=2:   1032 shell pairs
          la=4 lb=3:    581 shell pairs
          la=4 lb=4:    112 shell pairs

Calculating one electron integrals          ... done (  0.2 sec)
Calculating RI/JK V-Matrix + Cholesky decomp... done (  0.3 sec)
Calculating RI/C V-Matrix + Cholesky decomp.... done (  0.8 sec)
Calculating Nuclear repulsion               ... done (  0.0 sec) ENN=   1414.449624941371 Eh

SHARK setup successfully completed in   8.5 seconds

Maximum memory used throughout the entire GTOINT-calculation: 136.0 MB


           ************************************************************
           *        Program running with 12 parallel MPI-processes    *
           *              working on a common directory               *
           ************************************************************
-------------------------------------------------------------------------------
                                 ORCA SCF
-------------------------------------------------------------------------------

------------
SCF SETTINGS
------------
Hamiltonian:
 Ab initio Hamiltonian  Method          .... Hartree-Fock(GTOs)
 RI-approximation to the Coulomb term is turned on
   Number of AuxJK basis functions      .... 1748
   RI-JK (J+K treated both via RI)      .... on


General Settings:
 Integral files         IntName         .... dlpno_qz
 Hartree-Fock type      HFTyp           .... RHF
 Total Charge           Charge          ....    0
 Multiplicity           Mult            ....    1
 Number of Electrons    NEL             ....  138
 Basis Dimension        Dim             .... 1546
 Nuclear Repulsion      ENuc            ....   1414.4496249414 Eh

Convergence Acceleration:
 DIIS                   CNVDIIS         .... on
   Start iteration      DIISMaxIt       ....    12
   Startup error        DIISStart       ....  0.200000
   # of expansion vecs  DIISMaxEq       ....     5
   Bias factor          DIISBfac        ....   1.050
   Max. coefficient     DIISMaxC        ....  10.000
 Trust-Rad. Augm. Hess. CNVTRAH         .... auto
   Auto Start mean grad. ratio tolernc. ....  1.125000
   Auto Start start iteration           ....    20
   Auto Start num. interpolation iter.  ....    10
   Max. Number of Micro iterations      ....    16
   Max. Number of Macro iterations      .... Maxiter - #DIIS iter
   Number of Davidson start vectors     ....     2
   Converg. threshold I  (grad. norm)   ....   1.000e-05
   Converg. threshold II (energy diff.) ....   1.000e-08
   Grad. Scal. Fac. for Micro threshold ....   0.100
   Minimum threshold for Micro iter.    ....   0.010
   NR start threshold (gradient norm)   ....   0.001
   Initial trust radius                 ....   0.400
   Minimum AH scaling param. (alpha)    ....   1.000
   Maximum AH scaling param. (alpha)    .... 1000.000
   Orbital update algorithm             .... Taylor
   White noise on init. David. guess    .... on
   Maximum white noise                  ....   0.010
   Quad. conv. algorithm                .... NR
 SOSCF                  CNVSOSCF        .... on
   Start iteration      SOSCFMaxIt      ....   150
   Startup grad/error   SOSCFStart      ....  0.003300
 Level Shifting         CNVShift        .... on
   Level shift para.    LevelShift      ....    0.2500
   Turn off err/grad.   ShiftErr        ....    0.0010
 Zerner damping         CNVZerner       .... off
 Static damping         CNVDamp         .... on
   Fraction old density DampFac         ....    0.7000
   Max. Damping (<1)    DampMax         ....    0.9800
   Min. Damping (>=0)   DampMin         ....    0.0000
   Turn off err/grad.   DampErr         ....    0.1000
 Fernandez-Rico         CNVRico         .... off

SCF Procedure:
 Maximum # iterations   MaxIter         ....   300
 SCF integral mode      SCFMode         .... Direct
   Integral package                     .... SHARK and LIBINT hybrid scheme
 Reset frequency        DirectResetFreq ....    20
 Integral Threshold     Thresh          ....  2.500e-11 Eh
 Primitive CutOff       TCut            ....  2.500e-12 Eh

Convergence Tolerance:
 Convergence Check Mode ConvCheckMode   .... Total+1el-Energy
 Convergence forced     ConvForced      .... 1
 Energy Change          TolE            ....  1.000e-08 Eh
 1-El. energy change                    ....  1.000e-05 Eh
 Orbital Gradient       TolG            ....  1.000e-05
 Orbital Rotation angle TolX            ....  1.000e-05
 DIIS Error             TolErr          ....  5.000e-07


Diagonalization of the overlap matrix:
Smallest eigenvalue                        ... 5.570e-06
Time for diagonalization                   ...    0.576 sec
Threshold for overlap eigenvalues          ... 1.000e-08
Number of eigenvalues below threshold      ... 0
Time for construction of square roots      ...    0.291 sec
Total time needed                          ...    0.879 sec

Time for model grid setup =    0.852 sec

------------------------------
INITIAL GUESS: MODEL POTENTIAL
------------------------------
Loading Hartree-Fock densities                     ... done
Calculating cut-offs                               ... done
Initializing the effective Hamiltonian             ... done
Setting up the integral package (SHARK)            ... done
Starting the Coulomb interaction                   ... done (   1.5 sec)
Reading the grid                                   ... done
Mapping shells                                     ... done
Starting the XC term evaluation                    ... done (   0.5 sec)
Transforming the Hamiltonian                       ... done (   0.2 sec)
Diagonalizing the Hamiltonian                      ... done (   0.6 sec)
Back transforming the eigenvectors                 ... done (   0.1 sec)
Now organizing SCF variables                       ... done
                      ------------------
                      INITIAL GUESS DONE (   3.9 sec)
                      ------------------
--------------
SCF ITERATIONS
--------------
ITER       Energy         Delta-E        Max-DP      RMS-DP      [F,P]     Damp
  0  -1030.5737876974   0.000000000000 0.02909945  0.00020577  0.5518629 0.7000
  1  -1030.5129670796   0.060820617803 0.02314326  0.00019589  0.4125143 0.7000
  2  -1030.6066494694  -0.093682389803 0.01810405  0.00014863  0.2839056 0.7000
                               ***Turning on DIIS***
  3  -1030.8491313468  -0.242481877420 0.01321957  0.00009828  0.1947455 0.7000
  4  -1031.6315202485  -0.782388901697 0.01466682  0.00007133  0.1343301 0.7000
  5  -1030.9659444664   0.665575782087 0.04367708  0.00019559  0.0935005 0.0000
  6  -1031.7214030427  -0.755458576255 0.00776537  0.00002936  0.0120501 0.0000
                      *** Initiating the SOSCF procedure ***
                           *** Shutting down DIIS ***
                      *** Re-Reading the Fockian *** 
                      *** Removing any level shift *** 
ITER      Energy       Delta-E        Grad      Rot      Max-DP    RMS-DP
  7  -1031.40215190   0.3192511424  0.000607  0.000607  0.004628  0.000014
  8  -1031.39279442   0.0093574808  0.000348  0.000550  0.002769  0.000012
  9  -1031.39282581  -0.0000313896  0.000151  0.000345  0.001341  0.000006
 10  -1031.39282983  -0.0000040259  0.000075  0.000137  0.000313  0.000001
 11  -1031.39283021  -0.0000003766  0.000028  0.000040  0.000042  0.000000
 12  -1031.39283027  -0.0000000601  0.000009  0.000016  0.000019  0.000000
 13  -1031.39283028  -0.0000000082  0.000003  0.000008  0.000012  0.000000
                  ***Gradient check signals convergence***
              ***Rediagonalizing the Fockian in SOSCF/NRSCF***

               *****************************************************
               *                     SUCCESS                       *
               *           SCF CONVERGED AFTER  14 CYCLES          *
               *****************************************************


----------------
TOTAL SCF ENERGY
----------------

Total Energy       :        -1031.39283028 Eh          -28065.62574 eV

Components:
Nuclear Repulsion  :         1414.44962494 Eh           38489.13104 eV
Electronic Energy  :        -2445.84245522 Eh          -66554.75679 eV
One Electron Energy:        -4218.19376758 Eh         -114782.88787 eV
Two Electron Energy:         1772.35131236 Eh           48228.13108 eV

Virial components:
Potential Energy   :        -2062.11331120 Eh          -56112.95593 eV
Kinetic Energy     :         1030.72048091 Eh           28047.33018 eV
Virial Ratio       :            2.00065231


---------------
SCF CONVERGENCE
---------------

  Last Energy change         ...   -1.1241e-09  Tolerance :   1.0000e-08
  Last MAX-Density change    ...    7.1369e-06  Tolerance :   1.0000e-07
  Last RMS-Density change    ...    2.4778e-08  Tolerance :   5.0000e-09
  Last Orbital Gradient      ...    1.2955e-06  Tolerance :   1.0000e-05
  Last Orbital Rotation      ...    5.7877e-06  Tolerance :   1.0000e-05

             **** THE GBW FILE WAS UPDATED (dlpno_qz.gbw) ****
             **** DENSITY dlpno_qz.scfp WAS UPDATED ****
             **** ENERGY FILE WAS UPDATED (dlpno_qz.en.tmp) ****
             **** THE GBW FILE WAS UPDATED (dlpno_qz.gbw) ****
             **** DENSITY dlpno_qz.scfp WAS UPDATED ****
----------------
ORBITAL ENERGIES
----------------

  NO   OCC          E(Eh)            E(eV) 
   0   2.0000     -79.940040     -2175.2791 
   1   2.0000     -11.237770      -305.7953 
   2   2.0000     -11.237767      -305.7952 
   3   2.0000     -11.237759      -305.7950 
   4   2.0000     -11.237410      -305.7855 
   5   2.0000     -11.237397      -305.7851 
   6   2.0000     -11.237390      -305.7849 
   7   2.0000     -11.236569      -305.7626 
   8   2.0000     -11.236562      -305.7624 
   9   2.0000     -11.236556      -305.7622 
  10   2.0000     -11.235145      -305.7238 
  11   2.0000     -11.235137      -305.7236 
  12   2.0000     -11.235125      -305.7233 
  13   2.0000     -11.234623      -305.7096 
  14   2.0000     -11.234617      -305.7095 
  15   2.0000     -11.234610      -305.7093 
  16   2.0000     -11.233926      -305.6907 
  17   2.0000     -11.233919      -305.6905 
  18   2.0000     -11.233907      -305.6902 
  19   2.0000      -7.480890      -203.5654 
  20   2.0000      -5.375007      -146.2614 
  21   2.0000      -5.375006      -146.2614 
  22   2.0000      -5.374291      -146.2419 
  23   2.0000      -1.161609       -31.6090 
  24   2.0000      -1.152476       -31.3605 
  25   2.0000      -1.152455       -31.3599 
  26   2.0000      -1.045596       -28.4521 
  27   2.0000      -1.018906       -27.7258 
  28   2.0000      -1.018901       -27.7257 
  29   2.0000      -1.017716       -27.6935 
  30   2.0000      -1.011417       -27.5220 
  31   2.0000      -1.011402       -27.5216 
  32   2.0000      -0.879018       -23.9193 
  33   2.0000      -0.830693       -22.6043 
  34   2.0000      -0.830682       -22.6040 
  35   2.0000      -0.829180       -22.5631 
  36   2.0000      -0.815896       -22.2017 
  37   2.0000      -0.815891       -22.2015 
  38   2.0000      -0.759082       -20.6557 
  39   2.0000      -0.704737       -19.1769 
  40   2.0000      -0.704726       -19.1766 
  41   2.0000      -0.680835       -18.5265 
  42   2.0000      -0.636404       -17.3174 
  43   2.0000      -0.636395       -17.3172 
  44   2.0000      -0.629014       -17.1163 
  45   2.0000      -0.624450       -16.9922 
  46   2.0000      -0.624445       -16.9920 
  47   2.0000      -0.616585       -16.7781 
  48   2.0000      -0.590121       -16.0580 
  49   2.0000      -0.589382       -16.0379 
  50   2.0000      -0.589370       -16.0376 
  51   2.0000      -0.567649       -15.4465 
  52   2.0000      -0.567637       -15.4462 
  53   2.0000      -0.525960       -14.3121 
  54   2.0000      -0.508422       -13.8349 
  55   2.0000      -0.508403       -13.8343 
  56   2.0000      -0.504839       -13.7374 
  57   2.0000      -0.494857       -13.4658 
  58   2.0000      -0.494849       -13.4655 
  59   2.0000      -0.494747       -13.4628 
  60   2.0000      -0.458956       -12.4888 
  61   2.0000      -0.458951       -12.4887 
  62   2.0000      -0.383105       -10.4248 
  63   2.0000      -0.346248        -9.4219 
  64   2.0000      -0.346242        -9.4217 
  65   2.0000      -0.346216        -9.4210 
  66   2.0000      -0.335016        -9.1162 
  67   2.0000      -0.335008        -9.1160 
  68   2.0000      -0.299711        -8.1555 
  69   0.0000       0.097289         2.6474 
  70   0.0000       0.097297         2.6476 
  71   0.0000       0.098381         2.6771 
  72   0.0000       0.104076         2.8320 
  73   0.0000       0.111141         3.0243 
  74   0.0000       0.113198         3.0803 
  75   0.0000       0.113215         3.0807 
  76   0.0000       0.125619         3.4183 
  77   0.0000       0.125643         3.4189 
  78   0.0000       0.128476         3.4960 
  79   0.0000       0.128484         3.4962 
  80   0.0000       0.130129         3.5410 
  81   0.0000       0.137622         3.7449 
  82   0.0000       0.144116         3.9216 
  83   0.0000       0.144142         3.9223 
  84   0.0000       0.157262         4.2793 
  85   0.0000       0.157286         4.2800 
  86   0.0000       0.160819         4.3761 
  87   0.0000       0.178958         4.8697 
  88   0.0000       0.181336         4.9344 
  89   0.0000       0.181358         4.9350 
  90   0.0000       0.200741         5.4624 
  91   0.0000       0.200810         5.4643 
  92   0.0000       0.204359         5.5609 
  93   0.0000       0.217364         5.9148 
  94   0.0000       0.217416         5.9162 
  95   0.0000       0.220080         5.9887 
  96   0.0000       0.229680         6.2499 
  97   0.0000       0.236843         6.4448 
  98   0.0000       0.236884         6.4459 
  99   0.0000       0.244396         6.6504 
 100   0.0000       0.244439         6.6515 
 101   0.0000       0.245469         6.6796 
 102   0.0000       0.251674         6.8484 
 103   0.0000       0.256245         6.9728 
 104   0.0000       0.256280         6.9737 
 105   0.0000       0.262336         7.1385 
 106   0.0000       0.265021         7.2116 
 107   0.0000       0.265050         7.2124 
 108   0.0000       0.276306         7.5187 
 109   0.0000       0.287658         7.8276 
 110   0.0000       0.287678         7.8281 
 111   0.0000       0.290517         7.9054 
 112   0.0000       0.302100         8.2206 
 113   0.0000       0.302129         8.2214 
 114   0.0000       0.313178         8.5220 
 115   0.0000       0.313248         8.5239 
 116   0.0000       0.319092         8.6829 
 117   0.0000       0.330074         8.9818 
 118   0.0000       0.333424         9.0729 
 119   0.0000       0.333494         9.0748 
 120   0.0000       0.353977         9.6322 
 121   0.0000       0.353991         9.6326 
 122   0.0000       0.360347         9.8055 
 123   0.0000       0.364899         9.9294 
 124   0.0000       0.364948         9.9307 
 125   0.0000       0.370712        10.0876 
 126   0.0000       0.371749        10.1158 
 127   0.0000       0.377851        10.2819 
 128   0.0000       0.377900        10.2832 
 129   0.0000       0.384651        10.4669 
 130   0.0000       0.398377        10.8404 
 131   0.0000       0.398452        10.8424 
 132   0.0000       0.403623        10.9832 
 133   0.0000       0.405001        11.0206 
 134   0.0000       0.405017        11.0211 
 135   0.0000       0.411167        11.1884 
 136   0.0000       0.411186        11.1889 
 137   0.0000       0.415669        11.3109 
 138   0.0000       0.418099        11.3771 
 139   0.0000       0.421383        11.4664 
 140   0.0000       0.425251        11.5717 
 141   0.0000       0.425298        11.5729 
 142   0.0000       0.432350        11.7648 
 143   0.0000       0.432409        11.7664 
 144   0.0000       0.441719        12.0198 
 145   0.0000       0.445943        12.1347 
 146   0.0000       0.447995        12.1906 
 147   0.0000       0.448054        12.1922 
 148   0.0000       0.453770        12.3477 
 149   0.0000       0.453825        12.3492 
 150   0.0000       0.464849        12.6492 
 151   0.0000       0.472806        12.8657 
 152   0.0000       0.480333        13.0705 
 153   0.0000       0.480446        13.0736 
 154   0.0000       0.481349        13.0982 
 155   0.0000       0.481479        13.1017 
 156   0.0000       0.487742        13.2721 
 157   0.0000       0.497185        13.5291 
 158   0.0000       0.497247        13.5308 
 159   0.0000       0.499803        13.6003 
 160   0.0000       0.512077        13.9343 
 161   0.0000       0.512118        13.9354 
 162   0.0000       0.515084        14.0161 
 163   0.0000       0.520339        14.1591 
 164   0.0000       0.520403        14.1609 
 165   0.0000       0.521707        14.1964 
 166   0.0000       0.529346        14.4043 
 167   0.0000       0.529415        14.4061 
 168   0.0000       0.549599        14.9553 
 169   0.0000       0.549685        14.9577 
 170   0.0000       0.550818        14.9885 
 171   0.0000       0.560025        15.2391 
 172   0.0000       0.563984        15.3468 
 173   0.0000       0.564004        15.3473 
 174   0.0000       0.575018        15.6470 
 175   0.0000       0.578236        15.7346 
 176   0.0000       0.578273        15.7356 
 177   0.0000       0.591500        16.0955 
 178   0.0000       0.592819        16.1314 
 179   0.0000       0.592907        16.1338 
 180   0.0000       0.600212        16.3326 
 181   0.0000       0.600305        16.3351 
 182   0.0000       0.601727        16.3738 
 183   0.0000       0.617150        16.7935 
 184   0.0000       0.617324        16.7982 
 185   0.0000       0.617694        16.8083 
 186   0.0000       0.624905        17.0045 
 187   0.0000       0.629999        17.1431 
 188   0.0000       0.638843        17.3838 
 189   0.0000       0.638890        17.3851 
 190   0.0000       0.661349        17.9962 
 191   0.0000       0.661441        17.9987 
 192   0.0000       0.664322        18.0771 
 193   0.0000       0.674039        18.3415 
 194   0.0000       0.674070        18.3424 
 195   0.0000       0.682168        18.5627 
 196   0.0000       0.695515        18.9259 
 197   0.0000       0.695781        18.9332 
 198   0.0000       0.695809        18.9339 
 199   0.0000       0.712730        19.3944 
 200   0.0000       0.713819        19.4240 
 201   0.0000       0.714019        19.4294 
 202   0.0000       0.727894        19.8070 
 203   0.0000       0.731281        19.8992 
 204   0.0000       0.732175        19.9235 
 205   0.0000       0.732237        19.9252 
 206   0.0000       0.744871        20.2690 
 207   0.0000       0.744889        20.2695 
 208   0.0000       0.755122        20.5479 
 209   0.0000       0.761971        20.7343 
 210   0.0000       0.769816        20.9478 
 211   0.0000       0.769999        20.9527 
 212   0.0000       0.779559        21.2129 
 213   0.0000       0.779628        21.2148 
 214   0.0000       0.796476        21.6732 
 215   0.0000       0.796550        21.6752 
 216   0.0000       0.810641        22.0587 
 217   0.0000       0.819048        22.2874 
 218   0.0000       0.819156        22.2904 
 219   0.0000       0.824584        22.4381 
 220   0.0000       0.834800        22.7161 
 221   0.0000       0.840246        22.8643 
 222   0.0000       0.840395        22.8683 
 223   0.0000       0.850694        23.1486 
 224   0.0000       0.850735        23.1497 
 225   0.0000       0.855387        23.2763 
 226   0.0000       0.870866        23.6975 
 227   0.0000       0.870915        23.6988 
 228   0.0000       0.886543        24.1241 
 229   0.0000       0.889755        24.2115 
 230   0.0000       0.889776        24.2120 
 231   0.0000       0.894073        24.3290 
 232   0.0000       0.898556        24.4509 
 233   0.0000       0.898616        24.4526 
 234   0.0000       0.905642        24.6438 
 235   0.0000       0.912989        24.8437 
 236   0.0000       0.913038        24.8450 
 237   0.0000       0.921572        25.0772 
 238   0.0000       0.925512        25.1845 
 239   0.0000       0.925564        25.1859 
 240   0.0000       0.926709        25.2170 
 241   0.0000       0.935221        25.4487 
 242   0.0000       0.936910        25.4946 
 243   0.0000       0.936956        25.4959 
 244   0.0000       0.946859        25.7654 
 245   0.0000       0.946898        25.7664 
 246   0.0000       0.946989        25.7689 
 247   0.0000       0.953675        25.9508 
 248   0.0000       0.953683        25.9510 
 249   0.0000       0.954627        25.9767 
 250   0.0000       0.966650        26.3039 
 251   0.0000       0.966868        26.3098 
 252   0.0000       0.974066        26.5057 
 253   0.0000       0.978246        26.6194 
 254   0.0000       0.978268        26.6200 
 255   0.0000       0.988459        26.8973 
 256   0.0000       0.988492        26.8982 
 257   0.0000       0.988765        26.9057 
 258   0.0000       0.990119        26.9425 
 259   0.0000       0.996757        27.1231 
 260   0.0000       0.996843        27.1255 
 261   0.0000       1.003525        27.3073 
 262   0.0000       1.016779        27.6680 
 263   0.0000       1.016837        27.6695 
 264   0.0000       1.027291        27.9540 
 265   0.0000       1.030960        28.0539 
 266   0.0000       1.032925        28.1073 
 267   0.0000       1.033163        28.1138 
 268   0.0000       1.041203        28.3326 
 269   0.0000       1.041255        28.3340 
 270   0.0000       1.055776        28.7291 
 271   0.0000       1.055799        28.7298 
 272   0.0000       1.056550        28.7502 
 273   0.0000       1.070323        29.1250 
 274   0.0000       1.070864        29.1397 
 275   0.0000       1.070906        29.1408 
 276   0.0000       1.075462        29.2648 
 277   0.0000       1.075585        29.2682 
 278   0.0000       1.079937        29.3866 
 279   0.0000       1.090113        29.6635 
 280   0.0000       1.090953        29.6863 
 281   0.0000       1.090972        29.6869 
 282   0.0000       1.102330        29.9959 
 283   0.0000       1.102401        29.9978 
 284   0.0000       1.104466        30.0540 
 285   0.0000       1.108705        30.1694 
 286   0.0000       1.114699        30.3325 
 287   0.0000       1.114812        30.3356 
 288   0.0000       1.122541        30.5459 
 289   0.0000       1.124070        30.5875 
 290   0.0000       1.124127        30.5891 
 291   0.0000       1.134510        30.8716 
 292   0.0000       1.134630        30.8749 
 293   0.0000       1.135547        30.8998 
 294   0.0000       1.140002        31.0210 
 295   0.0000       1.144028        31.1306 
 296   0.0000       1.144199        31.1352 
 297   0.0000       1.150911        31.3179 
 298   0.0000       1.160105        31.5681 
 299   0.0000       1.160137        31.5689 
 300   0.0000       1.164891        31.6983 
 301   0.0000       1.170686        31.8560 
 302   0.0000       1.170797        31.8590 
 303   0.0000       1.173371        31.9290 
 304   0.0000       1.173505        31.9327 
 305   0.0000       1.183270        32.1984 
 306   0.0000       1.190771        32.4025 
 307   0.0000       1.190854        32.4048 
 308   0.0000       1.199158        32.6307 
 309   0.0000       1.207016        32.8446 
 310   0.0000       1.207142        32.8480 
 311   0.0000       1.221544        33.2399 
 312   0.0000       1.223428        33.2912 
 313   0.0000       1.232233        33.5308 
 314   0.0000       1.232357        33.5341 
 315   0.0000       1.246261        33.9125 
 316   0.0000       1.247353        33.9422 
 317   0.0000       1.247519        33.9467 
 318   0.0000       1.264885        34.4193 
 319   0.0000       1.266395        34.4604 
 320   0.0000       1.266497        34.4631 
 321   0.0000       1.275468        34.7073 
 322   0.0000       1.275571        34.7101 
 323   0.0000       1.278379        34.7864 
 324   0.0000       1.290437        35.1146 
 325   0.0000       1.290508        35.1165 
 326   0.0000       1.293632        35.2015 
 327   0.0000       1.302690        35.4480 
 328   0.0000       1.302868        35.4528 
 329   0.0000       1.305686        35.5295 
 330   0.0000       1.318546        35.8795 
 331   0.0000       1.318645        35.8822 
 332   0.0000       1.325424        36.0666 
 333   0.0000       1.334944        36.3257 
 334   0.0000       1.335041        36.3283 
 335   0.0000       1.344773        36.5931 
 336   0.0000       1.344820        36.5944 
 337   0.0000       1.346944        36.6522 
 338   0.0000       1.353510        36.8309 
 339   0.0000       1.373473        37.3741 
 340   0.0000       1.376108        37.4458 
 341   0.0000       1.376218        37.4488 
 342   0.0000       1.383951        37.6592 
 343   0.0000       1.396309        37.9955 
 344   0.0000       1.396435        37.9989 
 345   0.0000       1.405931        38.2573 
 346   0.0000       1.409182        38.3458 
 347   0.0000       1.409291        38.3487 
 348   0.0000       1.426564        38.8188 
 349   0.0000       1.426630        38.8206 
 350   0.0000       1.431058        38.9411 
 351   0.0000       1.455619        39.6094 
 352   0.0000       1.455641        39.6100 
 353   0.0000       1.457244        39.6536 
 354   0.0000       1.469156        39.9778 
 355   0.0000       1.469323        39.9823 
 356   0.0000       1.471475        40.0409 
 357   0.0000       1.480421        40.2843 
 358   0.0000       1.480546        40.2877 
 359   0.0000       1.484695        40.4006 
 360   0.0000       1.503321        40.9075 
 361   0.0000       1.505126        40.9566 
 362   0.0000       1.505241        40.9597 
 363   0.0000       1.514527        41.2124 
 364   0.0000       1.514638        41.2154 
 365   0.0000       1.522181        41.4207 
 366   0.0000       1.525559        41.5126 
 367   0.0000       1.542382        41.9704 
 368   0.0000       1.542618        41.9768 
 369   0.0000       1.545285        42.0493 
 370   0.0000       1.576593        42.9013 
 371   0.0000       1.576688        42.9039 
 372   0.0000       1.592015        43.3209 
 373   0.0000       1.592214        43.3263 
 374   0.0000       1.595254        43.4091 
 375   0.0000       1.601583        43.5813 
 376   0.0000       1.624445        44.2034 
 377   0.0000       1.626890        44.2699 
 378   0.0000       1.627182        44.2779 
 379   0.0000       1.635402        44.5016 
 380   0.0000       1.649657        44.8895 
 381   0.0000       1.649841        44.8945 
 382   0.0000       1.659978        45.1703 
 383   0.0000       1.684881        45.8480 
 384   0.0000       1.685070        45.8531 
 385   0.0000       1.707295        46.4579 
 386   0.0000       1.711193        46.5639 
 387   0.0000       1.711380        46.5690 
 388   0.0000       1.743192        47.4347 
 389   0.0000       1.743298        47.4376 
 390   0.0000       1.748774        47.5866 
 391   0.0000       1.766425        48.0669 
 392   0.0000       1.767949        48.1083 
 393   0.0000       1.768144        48.1136 
 394   0.0000       1.779054        48.4105 
 395   0.0000       1.779214        48.4149 
 396   0.0000       1.780997        48.4634 
 397   0.0000       1.792554        48.7779 
 398   0.0000       1.792691        48.7816 
 399   0.0000       1.823698        49.6254 
 400   0.0000       1.823887        49.6305 
 401   0.0000       1.825863        49.6843 
 402   0.0000       1.838356        50.0242 
 403   0.0000       1.845504        50.2187 
 404   0.0000       1.845524        50.2193 
 405   0.0000       1.862271        50.6750 
 406   0.0000       1.862366        50.6775 
 407   0.0000       1.868196        50.8362 
 408   0.0000       1.875366        51.0313 
 409   0.0000       1.892351        51.4935 
 410   0.0000       1.892510        51.4978 
 411   0.0000       1.905810        51.8597 
 412   0.0000       1.923941        52.3531 
 413   0.0000       1.924025        52.3554 
 414   0.0000       1.929328        52.4997 
 415   0.0000       1.945556        52.9413 
 416   0.0000       1.945708        52.9454 
 417   0.0000       1.947379        52.9909 
 418   0.0000       1.954684        53.1897 
 419   0.0000       1.954760        53.1917 
 420   0.0000       1.971292        53.6416 
 421   0.0000       1.978205        53.8297 
 422   0.0000       1.978242        53.8307 
 423   0.0000       1.981327        53.9146 
 424   0.0000       1.984605        54.0039 
 425   0.0000       1.984975        54.0139 
 426   0.0000       1.985063        54.0163 
 427   0.0000       2.006287        54.5938 
 428   0.0000       2.010734        54.7149 
 429   0.0000       2.010934        54.7203 
 430   0.0000       2.017313        54.8939 
 431   0.0000       2.032025        55.2942 
 432   0.0000       2.032125        55.2969 
 433   0.0000       2.045531        55.6617 
 434   0.0000       2.045824        55.6697 
 435   0.0000       2.051173        55.8153 
 436   0.0000       2.064532        56.1788 
 437   0.0000       2.064701        56.1834 
 438   0.0000       2.066818        56.2410 
 439   0.0000       2.072624        56.3990 
 440   0.0000       2.072744        56.4022 
 441   0.0000       2.075705        56.4828 
 442   0.0000       2.083264        56.6885 
 443   0.0000       2.083429        56.6930 
 444   0.0000       2.101284        57.1788 
 445   0.0000       2.102942        57.2240 
 446   0.0000       2.103025        57.2262 
 447   0.0000       2.111625        57.4602 
 448   0.0000       2.111815        57.4654 
 449   0.0000       2.111934        57.4687 
 450   0.0000       2.123513        57.7837 
 451   0.0000       2.123548        57.7847 
 452   0.0000       2.139554        58.2202 
 453   0.0000       2.142973        58.3133 
 454   0.0000       2.149549        58.4922 
 455   0.0000       2.149612        58.4939 
 456   0.0000       2.161526        58.8181 
 457   0.0000       2.163335        58.8673 
 458   0.0000       2.163362        58.8681 
 459   0.0000       2.170729        59.0685 
 460   0.0000       2.177407        59.2503 
 461   0.0000       2.177460        59.2517 
 462   0.0000       2.191265        59.6273 
 463   0.0000       2.192607        59.6639 
 464   0.0000       2.192649        59.6650 
 465   0.0000       2.199421        59.8493 
 466   0.0000       2.203640        59.9641 
 467   0.0000       2.217131        60.3312 
 468   0.0000       2.217227        60.3338 
 469   0.0000       2.225220        60.5513 
 470   0.0000       2.225277        60.5529 
 471   0.0000       2.227705        60.6189 
 472   0.0000       2.238847        60.9221 
 473   0.0000       2.242121        61.0112 
 474   0.0000       2.242231        61.0142 
 475   0.0000       2.247279        61.1516 
 476   0.0000       2.256134        61.3925 
 477   0.0000       2.256288        61.3967 
 478   0.0000       2.265037        61.6348 
 479   0.0000       2.265099        61.6365 
 480   0.0000       2.268217        61.7213 
 481   0.0000       2.268404        61.7264 
 482   0.0000       2.276468        61.9458 
 483   0.0000       2.289149        62.2909 
 484   0.0000       2.290092        62.3166 
 485   0.0000       2.290132        62.3176 
 486   0.0000       2.306596        62.7657 
 487   0.0000       2.311159        62.8898 
 488   0.0000       2.311383        62.8959 
 489   0.0000       2.320036        63.1314 
 490   0.0000       2.320115        63.1335 
 491   0.0000       2.320524        63.1447 
 492   0.0000       2.331006        63.4299 
 493   0.0000       2.331168        63.4343 
 494   0.0000       2.348049        63.8936 
 495   0.0000       2.351222        63.9800 
 496   0.0000       2.363865        64.3240 
 497   0.0000       2.363985        64.3273 
 498   0.0000       2.367666        64.4275 
 499   0.0000       2.379288        64.7437 
 500   0.0000       2.379413        64.7471 
 501   0.0000       2.384349        64.8814 
 502   0.0000       2.390636        65.0525 
 503   0.0000       2.391102        65.0652 
 504   0.0000       2.391196        65.0678 
 505   0.0000       2.399262        65.2872 
 506   0.0000       2.399337        65.2893 
 507   0.0000       2.415016        65.7159 
 508   0.0000       2.415112        65.7186 
 509   0.0000       2.422368        65.9160 
 510   0.0000       2.434023        66.2331 
 511   0.0000       2.438483        66.3545 
 512   0.0000       2.443387        66.4879 
 513   0.0000       2.443462        66.4900 
 514   0.0000       2.458207        66.8912 
 515   0.0000       2.459253        66.9197 
 516   0.0000       2.459330        66.9218 
 517   0.0000       2.469092        67.1874 
 518   0.0000       2.469267        67.1922 
 519   0.0000       2.473267        67.3010 
 520   0.0000       2.481296        67.5195 
 521   0.0000       2.481424        67.5230 
 522   0.0000       2.482371        67.5487 
 523   0.0000       2.492426        67.8224 
 524   0.0000       2.492587        67.8267 
 525   0.0000       2.494441        67.8772 
 526   0.0000       2.507133        68.2225 
 527   0.0000       2.507235        68.2253 
 528   0.0000       2.510858        68.3239 
 529   0.0000       2.526224        68.7421 
 530   0.0000       2.526393        68.7466 
 531   0.0000       2.532020        68.8998 
 532   0.0000       2.535871        69.0046 
 533   0.0000       2.540438        69.1288 
 534   0.0000       2.540578        69.1326 
 535   0.0000       2.543730        69.2184 
 536   0.0000       2.543773        69.2196 
 537   0.0000       2.545490        69.2663 
 538   0.0000       2.563398        69.7536 
 539   0.0000       2.563441        69.7548 
 540   0.0000       2.564636        69.7873 
 541   0.0000       2.571981        69.9872 
 542   0.0000       2.572015        69.9881 
 543   0.0000       2.573918        70.0399 
 544   0.0000       2.590820        70.4998 
 545   0.0000       2.590994        70.5045 
 546   0.0000       2.605489        70.8990 
 547   0.0000       2.605563        70.9010 
 548   0.0000       2.607486        70.9533 
 549   0.0000       2.625982        71.4566 
 550   0.0000       2.635077        71.7041 
 551   0.0000       2.635217        71.7079 
 552   0.0000       2.640687        71.8567 
 553   0.0000       2.640755        71.8586 
 554   0.0000       2.654847        72.2421 
 555   0.0000       2.661555        72.4246 
 556   0.0000       2.661648        72.4271 
 557   0.0000       2.668467        72.6127 
 558   0.0000       2.683932        73.0335 
 559   0.0000       2.692757        73.2737 
 560   0.0000       2.692837        73.2758 
 561   0.0000       2.697716        73.4086 
 562   0.0000       2.701727        73.5177 
 563   0.0000       2.701771        73.5189 
 564   0.0000       2.722024        74.0700 
 565   0.0000       2.726244        74.1849 
 566   0.0000       2.726339        74.1875 
 567   0.0000       2.726802        74.2001 
 568   0.0000       2.734315        74.4045 
 569   0.0000       2.734359        74.4057 
 570   0.0000       2.737637        74.4949 
 571   0.0000       2.741755        74.6069 
 572   0.0000       2.741840        74.6093 
 573   0.0000       2.747768        74.7706 
 574   0.0000       2.749592        74.8202 
 575   0.0000       2.757519        75.0359 
 576   0.0000       2.757633        75.0390 
 577   0.0000       2.775063        75.5133 
 578   0.0000       2.775299        75.5197 
 579   0.0000       2.775502        75.5253 
 580   0.0000       2.787117        75.8413 
 581   0.0000       2.787183        75.8431 
 582   0.0000       2.798112        76.1405 
 583   0.0000       2.807859        76.4057 
 584   0.0000       2.813396        76.5564 
 585   0.0000       2.820142        76.7400 
 586   0.0000       2.820252        76.7430 
 587   0.0000       2.820455        76.7485 
 588   0.0000       2.832116        77.0658 
 589   0.0000       2.832287        77.0704 
 590   0.0000       2.839948        77.2789 
 591   0.0000       2.840052        77.2817 
 592   0.0000       2.846466        77.4563 
 593   0.0000       2.850348        77.5619 
 594   0.0000       2.850443        77.5645 
 595   0.0000       2.857463        77.7555 
 596   0.0000       2.873942        78.2039 
 597   0.0000       2.876981        78.2866 
 598   0.0000       2.877144        78.2911 
 599   0.0000       2.887993        78.5863 
 600   0.0000       2.891240        78.6746 
 601   0.0000       2.891343        78.6774 
 602   0.0000       2.893880        78.7465 
 603   0.0000       2.898494        78.8720 
 604   0.0000       2.898612        78.8752 
 605   0.0000       2.916544        79.3632 
 606   0.0000       2.916670        79.3666 
 607   0.0000       2.921205        79.4900 
 608   0.0000       2.921688        79.5032 
 609   0.0000       2.921733        79.5044 
 610   0.0000       2.928431        79.6866 
 611   0.0000       2.940490        80.0148 
 612   0.0000       2.944581        80.1261 
 613   0.0000       2.944598        80.1266 
 614   0.0000       2.956916        80.4618 
 615   0.0000       2.956979        80.4635 
 616   0.0000       2.959038        80.5195 
 617   0.0000       2.967244        80.7428 
 618   0.0000       2.967267        80.7435 
 619   0.0000       2.977309        81.0167 
 620   0.0000       2.977391        81.0189 
 621   0.0000       2.982790        81.1658 
 622   0.0000       2.990546        81.3769 
 623   0.0000       2.990606        81.3785 
 624   0.0000       3.004947        81.7688 
 625   0.0000       3.005035        81.7712 
 626   0.0000       3.005673        81.7885 
 627   0.0000       3.017003        82.0968 
 628   0.0000       3.019807        82.1731 
 629   0.0000       3.019852        82.1744 
 630   0.0000       3.024240        82.2937 
 631   0.0000       3.030037        82.4515 
 632   0.0000       3.030168        82.4551 
 633   0.0000       3.031276        82.4852 
 634   0.0000       3.039583        82.7113 
 635   0.0000       3.039614        82.7121 
 636   0.0000       3.043948        82.8300 
 637   0.0000       3.050155        82.9989 
 638   0.0000       3.054193        83.1088 
 639   0.0000       3.054285        83.1113 
 640   0.0000       3.067933        83.4827 
 641   0.0000       3.068027        83.4852 
 642   0.0000       3.077586        83.7454 
 643   0.0000       3.081989        83.8652 
 644   0.0000       3.086953        84.0003 
 645   0.0000       3.087062        84.0032 
 646   0.0000       3.097826        84.2961 
 647   0.0000       3.098936        84.3263 
 648   0.0000       3.099042        84.3292 
 649   0.0000       3.108660        84.5909 
 650   0.0000       3.117430        84.8296 
 651   0.0000       3.117572        84.8334 
 652   0.0000       3.126337        85.0719 
 653   0.0000       3.126372        85.0729 
 654   0.0000       3.128246        85.1239 
 655   0.0000       3.142682        85.5167 
 656   0.0000       3.142802        85.5200 
 657   0.0000       3.157181        85.9113 
 658   0.0000       3.165081        86.1262 
 659   0.0000       3.165300        86.1322 
 660   0.0000       3.176065        86.4251 
 661   0.0000       3.192947        86.8845 
 662   0.0000       3.193095        86.8885 
 663   0.0000       3.202175        87.1356 
 664   0.0000       3.213823        87.4526 
 665   0.0000       3.213943        87.4558 
 666   0.0000       3.233687        87.9931 
 667   0.0000       3.233912        87.9992 
 668   0.0000       3.236678        88.0745 
 669   0.0000       3.243726        88.2663 
 670   0.0000       3.243874        88.2703 
 671   0.0000       3.247874        88.3791 
 672   0.0000       3.274878        89.1140 
 673   0.0000       3.293165        89.6116 
 674   0.0000       3.293247        89.6138 
 675   0.0000       3.309956        90.0685 
 676   0.0000       3.310098        90.0724 
 677   0.0000       3.314272        90.1859 
 678   0.0000       3.329472        90.5995 
 679   0.0000       3.338370        90.8417 
 680   0.0000       3.338497        90.8451 
 681   0.0000       3.343532        90.9821 
 682   0.0000       3.348459        91.1162 
 683   0.0000       3.348538        91.1183 
 684   0.0000       3.369730        91.6950 
 685   0.0000       3.391945        92.2995 
 686   0.0000       3.392044        92.3022 
 687   0.0000       3.401408        92.5570 
 688   0.0000       3.413724        92.8921 
 689   0.0000       3.413771        92.8934 
 690   0.0000       3.423740        93.1647 
 691   0.0000       3.431448        93.3745 
 692   0.0000       3.431609        93.3788 
 693   0.0000       3.438250        93.5595 
 694   0.0000       3.469968        94.4226 
 695   0.0000       3.478466        94.6539 
 696   0.0000       3.478728        94.6610 
 697   0.0000       3.490788        94.9892 
 698   0.0000       3.490865        94.9913 
 699   0.0000       3.491449        95.0072 
 700   0.0000       3.507321        95.4391 
 701   0.0000       3.510493        95.5254 
 702   0.0000       3.510745        95.5322 
 703   0.0000       3.535081        96.1945 
 704   0.0000       3.544774        96.4582 
 705   0.0000       3.544855        96.4604 
 706   0.0000       3.564301        96.9896 
 707   0.0000       3.564421        96.9928 
 708   0.0000       3.568247        97.0969 
 709   0.0000       3.570453        97.1570 
 710   0.0000       3.570521        97.1588 
 711   0.0000       3.605905        98.1217 
 712   0.0000       3.620824        98.5276 
 713   0.0000       3.621054        98.5339 
 714   0.0000       3.622101        98.5624 
 715   0.0000       3.637927        98.9930 
 716   0.0000       3.637989        98.9947 
 717   0.0000       3.646116        99.2159 
 718   0.0000       3.661924        99.6460 
 719   0.0000       3.667784        99.8055 
 720   0.0000       3.667945        99.8099 
 721   0.0000       3.681348       100.1746 
 722   0.0000       3.681539       100.1798 
 723   0.0000       3.695229       100.5523 
 724   0.0000       3.701952       100.7352 
 725   0.0000       3.701992       100.7363 
 726   0.0000       3.729973       101.4977 
 727   0.0000       3.730012       101.4988 
 728   0.0000       3.737800       101.7107 
 729   0.0000       3.739776       101.7645 
 730   0.0000       3.739792       101.7649 
 731   0.0000       3.748014       101.9886 
 732   0.0000       3.756759       102.2266 
 733   0.0000       3.765470       102.4636 
 734   0.0000       3.766483       102.4912 
 735   0.0000       3.766573       102.4937 
 736   0.0000       3.780425       102.8706 
 737   0.0000       3.780434       102.8709 
 738   0.0000       3.787260       103.0566 
 739   0.0000       3.795383       103.2776 
 740   0.0000       3.800548       103.4182 
 741   0.0000       3.800617       103.4200 
 742   0.0000       3.812461       103.7424 
 743   0.0000       3.812509       103.7436 
 744   0.0000       3.826196       104.1161 
 745   0.0000       3.839875       104.4883 
 746   0.0000       3.853012       104.8458 
 747   0.0000       3.853100       104.8482 
 748   0.0000       3.868632       105.2708 
 749   0.0000       3.869322       105.2896 
 750   0.0000       3.869380       105.2912 
 751   0.0000       3.884758       105.7096 
 752   0.0000       3.884820       105.7113 
 753   0.0000       3.904906       106.2579 
 754   0.0000       3.914997       106.5325 
 755   0.0000       3.915118       106.5358 
 756   0.0000       3.932395       107.0059 
 757   0.0000       3.941949       107.2659 
 758   0.0000       3.944619       107.3385 
 759   0.0000       3.944731       107.3416 
 760   0.0000       3.955174       107.6257 
 761   0.0000       3.966899       107.9448 
 762   0.0000       3.966994       107.9474 
 763   0.0000       3.980894       108.3256 
 764   0.0000       3.980971       108.3277 
 765   0.0000       3.986393       108.4753 
 766   0.0000       4.003624       108.9441 
 767   0.0000       4.003748       108.9475 
 768   0.0000       4.030169       109.6665 
 769   0.0000       4.038692       109.8984 
 770   0.0000       4.038855       109.9028 
 771   0.0000       4.069094       110.7257 
 772   0.0000       4.076451       110.9259 
 773   0.0000       4.090421       111.3060 
 774   0.0000       4.090507       111.3083 
 775   0.0000       4.142040       112.7106 
 776   0.0000       4.157022       113.1183 
 777   0.0000       4.157080       113.1199 
 778   0.0000       4.177437       113.6738 
 779   0.0000       4.177519       113.6761 
 780   0.0000       4.188760       113.9819 
 781   0.0000       4.199648       114.2782 
 782   0.0000       4.199682       114.2792 
 783   0.0000       4.204047       114.3979 
 784   0.0000       4.207590       114.4943 
 785   0.0000       4.207655       114.4961 
 786   0.0000       4.214686       114.6874 
 787   0.0000       4.237611       115.3113 
 788   0.0000       4.243322       115.4667 
 789   0.0000       4.243372       115.4680 
 790   0.0000       4.276526       116.3702 
 791   0.0000       4.299956       117.0077 
 792   0.0000       4.300129       117.0125 
 793   0.0000       4.324263       117.6692 
 794   0.0000       4.324311       117.6705 
 795   0.0000       4.349457       118.3547 
 796   0.0000       4.367895       118.8565 
 797   0.0000       4.367933       118.8575 
 798   0.0000       4.394910       119.5916 
 799   0.0000       4.409269       119.9823 
 800   0.0000       4.410938       120.0277 
 801   0.0000       4.411040       120.0305 
 802   0.0000       4.424868       120.4068 
 803   0.0000       4.441606       120.8622 
 804   0.0000       4.441786       120.8671 
 805   0.0000       4.446762       121.0025 
 806   0.0000       4.456474       121.2668 
 807   0.0000       4.456540       121.2686 
 808   0.0000       4.486177       122.0751 
 809   0.0000       4.486232       122.0766 
 810   0.0000       4.486787       122.0917 
 811   0.0000       4.506142       122.6184 
 812   0.0000       4.506191       122.6197 
 813   0.0000       4.519333       122.9773 
 814   0.0000       4.533165       123.3537 
 815   0.0000       4.535352       123.4132 
 816   0.0000       4.535393       123.4143 
 817   0.0000       4.608987       125.4169 
 818   0.0000       4.609116       125.4204 
 819   0.0000       4.614271       125.5607 
 820   0.0000       4.639876       126.2574 
 821   0.0000       4.640043       126.2620 
 822   0.0000       4.669952       127.0758 
 823   0.0000       4.722616       128.5089 
 824   0.0000       4.733284       128.7992 
 825   0.0000       4.733364       128.8014 
 826   0.0000       4.826841       131.3450 
 827   0.0000       4.833494       131.5260 
 828   0.0000       4.833692       131.5314 
 829   0.0000       4.880437       132.8034 
 830   0.0000       4.880544       132.8064 
 831   0.0000       4.888320       133.0180 
 832   0.0000       4.903283       133.4251 
 833   0.0000       4.928056       134.0992 
 834   0.0000       4.928080       134.0999 
 835   0.0000       4.942898       134.5031 
 836   0.0000       4.942964       134.5049 
 837   0.0000       4.964423       135.0888 
 838   0.0000       4.989783       135.7789 
 839   0.0000       5.020328       136.6101 
 840   0.0000       5.020399       136.6120 
 841   0.0000       5.053430       137.5108 
 842   0.0000       5.071404       137.9999 
 843   0.0000       5.071591       138.0050 
 844   0.0000       5.109421       139.0344 
 845   0.0000       5.109487       139.0362 
 846   0.0000       5.121383       139.3599 
 847   0.0000       5.121513       139.3635 
 848   0.0000       5.122387       139.3872 
 849   0.0000       5.150228       140.1448 
 850   0.0000       5.175016       140.8193 
 851   0.0000       5.175107       140.8218 
 852   0.0000       5.193028       141.3095 
 853   0.0000       5.226835       142.2294 
 854   0.0000       5.249085       142.8349 
 855   0.0000       5.250913       142.8846 
 856   0.0000       5.250943       142.8854 
 857   0.0000       5.258494       143.0909 
 858   0.0000       5.258583       143.0933 
 859   0.0000       5.270475       143.4169 
 860   0.0000       5.300297       144.2284 
 861   0.0000       5.300338       144.2295 
 862   0.0000       5.301450       144.2598 
 863   0.0000       5.323835       144.8689 
 864   0.0000       5.323874       144.8700 
 865   0.0000       5.344444       145.4297 
 866   0.0000       5.355537       145.7316 
 867   0.0000       5.355637       145.7343 
 868   0.0000       5.418787       147.4527 
 869   0.0000       5.430790       147.7793 
 870   0.0000       5.431011       147.7853 
 871   0.0000       5.432011       147.8125 
 872   0.0000       5.443131       148.1151 
 873   0.0000       5.443342       148.1209 
 874   0.0000       5.468383       148.8023 
 875   0.0000       5.469135       148.8227 
 876   0.0000       5.469317       148.8277 
 877   0.0000       5.493489       149.4854 
 878   0.0000       5.493525       149.4864 
 879   0.0000       5.499290       149.6433 
 880   0.0000       5.507763       149.8738 
 881   0.0000       5.527038       150.3984 
 882   0.0000       5.527082       150.3995 
 883   0.0000       5.541460       150.7908 
 884   0.0000       5.541586       150.7942 
 885   0.0000       5.543865       150.8562 
 886   0.0000       5.553752       151.1253 
 887   0.0000       5.561316       151.3311 
 888   0.0000       5.563701       151.3960 
 889   0.0000       5.563769       151.3979 
 890   0.0000       5.574288       151.6841 
 891   0.0000       5.574346       151.6857 
 892   0.0000       5.620630       152.9451 
 893   0.0000       5.631675       153.2457 
 894   0.0000       5.631689       153.2460 
 895   0.0000       5.656537       153.9222 
 896   0.0000       5.656629       153.9247 
 897   0.0000       5.662795       154.0925 
 898   0.0000       5.663132       154.1017 
 899   0.0000       5.663219       154.1040 
 900   0.0000       5.664201       154.1307 
 901   0.0000       5.679734       154.5534 
 902   0.0000       5.685163       154.7011 
 903   0.0000       5.685214       154.7025 
 904   0.0000       5.687091       154.7536 
 905   0.0000       5.703104       155.1893 
 906   0.0000       5.703153       155.1907 
 907   0.0000       5.704276       155.2212 
 908   0.0000       5.717004       155.5676 
 909   0.0000       5.717141       155.5713 
 910   0.0000       5.738164       156.1434 
 911   0.0000       5.756745       156.6490 
 912   0.0000       5.756787       156.6502 
 913   0.0000       5.763394       156.8299 
 914   0.0000       5.773406       157.1024 
 915   0.0000       5.773436       157.1032 
 916   0.0000       5.783309       157.3718 
 917   0.0000       5.795199       157.6954 
 918   0.0000       5.795291       157.6979 
 919   0.0000       5.806801       158.0111 
 920   0.0000       5.806892       158.0136 
 921   0.0000       5.813784       158.2011 
 922   0.0000       5.829675       158.6335 
 923   0.0000       5.836148       158.8097 
 924   0.0000       5.841213       158.9475 
 925   0.0000       5.841275       158.9492 
[...]

Initial PNO correlation energy                        ...      -3.003052028061 Eh
sum of pair energies prescreened and skipped MP2 pairs...      -0.001057889284 Eh
sum of pair energies of crude MP2 skipped pairs only  ...      -0.001057889284 Eh
sum of MP2 pair energies for pairs that were not kept ...      -0.011253563732 Eh
sum of PNO error estimates for the kept pairs         ...      -0.017278897715 Eh
                                                          --------------------
sum of all corrections                                         -0.028532461447
Initial total correlation energy                               -3.031584489508
Thresholds for map construction and integral transformation for fine MP2 and CCSD(T) calculation:
   TCutMKN   ...     1.0e-03
   TCutDO    ...     1.0e-02
   TCutPairs ...     1.0e-04
   TCutCMO   ...     1.0e-03
   TCutCPAO  ...     1.0e-03

Thresholds for map construction and integral transformation for strong Triples:
   TCutMKN   ...     1.0e-02
   TCutDO    ...     2.0e-02
   TCutCMO   ...     1.0e-03
   TCutCPAO  ...     1.0e-03

Thresholds for map construction and integral transformation for weak Triples:
   TCutMKN   ...     1.0e-01
   TCutDO    ...     4.0e-02
   TCutCMO   ...     1.0e-03
   TCutCPAO  ...     1.0e-03

--------------------------------
LOCAL RI TRANSFORMATION (IAVPAO)
--------------------------------

Orbital window:      23 to 68
Number of PAOs:    1546
Basis functions:   1546 (478 shells)
Aux. functions:    3545 (875 shells)
Use SHARK:           on

Processing maps (0.1 sec)
Average map sizes:
   Aux shells -> MOs              44.2
   Aux shells -> PAOs           1546.0
   MOs        -> AO shells       447.8
   PAOs       -> AO shells       476.4

Calculating integrals (30.7 sec, 1855.944 MB)
Sorting integrals (3.3 sec, 1855.904 MB)
Total time for the integral transformation: 45.9 sec
--------------------------------
INITIAL GUESS AND PNO GENERATION
--------------------------------

PNO truncation parameters                   .... 
    PAOOverlapThresh   =        1.000e-08

    TCutPairs          =        1.000e-04
    TCutPNO            =        3.330e-07
    TCutPNOSingles     =        9.990e-09
    TCutMP2Pairs       =        1.000e-05
    TCutMKN            =        1.000e-03
    TCutDO             =        1.000e-02

Pair selection                          .... not used
Type of local MP2 treatment                 .... semi-local MP2
Strategy for PNO selection                  .... occupation number selection
Pair density normalization                  .... MP2 norm
Spin component scaling                      .... not used

   .... Finished loop over pairs

 PNO Occupation Number Statistics: 
  | Av. % of trace(Dij) retained        ...  97.061785662994
  | sigma^2 in % of trace(Dij) retained ...   9.20e+00
  | Av. % of trace(Di) retained         ...  99.998079470823
  | sigma^2 in % of trace(Di) retained  ...   6.37e-07
 Distributions of % trace(Dij) recovered:
  |       >= 99.9  ...   106 ( 13.2 % of all pairs)
  |   [80.0, 90.0) ...    21 (  2.6 % of all pairs)
  |   [90.0, 99.0) ...   462 ( 57.6 % of all pairs)
  |   [99.0, 99.9) ...   213 ( 26.6 % of all pairs)
 Distributions of % trace(Di) recovered :
  |       >= 99.9  ...    46 (100.0 % of all I-pairs )

Making pair pair interaction lists          ... done

                       ===========================
                        499 OF  802 PAIRS ARE KEPT
                       ===========================

Total time spent in the initial guess                 ...   377.777 sec
SL-MP2 correlation energy (all non-screened pairs)    ...      -3.031440003920 Eh

Initial PNO correlation energy                        ...      -3.003848639163 Eh
sum of pair energies estimated for screened out pairs ...      -0.001057889284 Eh
sum of MP2 pair energies for pairs that were not kept ...      -0.010197696311 Eh
sum of PNO error estimates for the kept pairs         ...      -0.017393668446 Eh
                                                          --------------------
sum of all corrections                                         -0.028649254040
Initial total correlation energy                               -3.032497893203
Thresholds for map construction and integral transformation for fine MP2 and CCSD(T) calculation:
   TCutMKN   ...     1.0e-03
   TCutDO    ...     1.0e-02
   TCutPairs ...     1.0e-04
   TCutCMO   ...     1.0e-03
   TCutCPAO  ...     1.0e-03

Time for aux screen maps:            0.024
Time for maps after fine MP2:            0.149
-----------------------------
LOCAL RI TRANSFORMATION (IJV)
-----------------------------

Orbital window:      23 to 68
Basis functions:   1546 (478 shells)
Aux. functions:    3545 (875 shells)
Use SHARK:           on

Processing maps (0.0 sec)
Average map sizes:
   Aux shells -> MOs(i)           38.0
   Aux shells -> MOs(j)           46.0
   MOs        -> AO shells       447.8

Calculating integrals (23.8 sec, 47.834 MB)
Sorting integrals (0.3 sec, 47.794 MB)
Total time for the integral transformation: 24.1 sec
--------------------------------
LOCAL RI TRANSFORMATION (VABPAO)
--------------------------------

Number of PAOs:    1546
Basis functions:   1546 (478 shells)
Aux. functions:    3545 (875 shells)
Use SHARK:           on

Processing maps (0.0 sec)
Average map sizes:
   Aux shells -> PAOs           1540.0
   PAOs       -> AO shells       476.4

Calculating integrals (557.6 sec, 64218.811 MB)
Finished


-------------------------------------
Pair Pair Term precalculation with     
RI-(ij|mn) and (im|jn) transformation  
ON THE FLY                             
-------------------------------------

   IBatch   1 (of   6)              ... done ( 1694.799 sec)
   IBatch   2 (of   6)              ... done ( 2472.037 sec)
   IBatch   3 (of   6)              ... done ( 3062.493 sec)
   IBatch   4 (of   6)              ... done ( 2287.502 sec)
   IBatch   5 (of   6)              ... done ( 1943.700 sec)
   IBatch   6 (of   6)              ... done ( 1336.236 sec)
Total EXT                           ...       12796.767 sec

---------------------
RI-PNO TRANSFORMATION
---------------------

Total Number of PNOs                   ... 22984
Average number of PNOs per pair        ...    46
Maximal number of PNOs per pair        ...   106
   #pairs with  1 -  5 PNOs   :    0
   #pairs with  6 - 10 PNOs   :    9
   #pairs with 11 - 15 PNOs   :   54
   #pairs with 16 - 20 PNOs   :   39
   #pairs with 21 - 25 PNOs   :   30
   #pairs with 26 - 30 PNOs   :   18
   #pairs with 31 - 35 PNOs   :   48
   #pairs with 36 - 40 PNOs   :   54
   #pairs with 41 - 45 PNOs   :   15
   #pairs with 46 - 50 PNOs   :   45
   #pairs with 56 - 60 PNOs   :    7
   #pairs with 61 - 65 PNOs   :   42
   #pairs with 66 - 70 PNOs   :   33
   #pairs with 71 - 75 PNOs   :   42
   #pairs with 81 - 85 PNOs   :   21
   #pairs with 86 - 90 PNOs   :   33
   #pairs with > 96 PNOs      :    9

Generation of (ij|ab)[P] integrals            ... on
Generation of (ia|bc)[P],(ja|bc)[P] integrals ... on
Storage of 3 and 4 external integrals         ... on
Generation of ALL (ka|bc)[P] integrals        ... on
Keep RI integrals in memory                   ... off

Ibatch:  1 (of  1)
Starting 2-4 index PNO integral generation ... done

Timings:
Total PNO integral transformation time     ...       1777.790 sec
Size of the 3-external file                ...       726 MB
Size of the 4-external file                ...      6882 MB
Size of the IKJL file                      ...         0 MB
Size of the all 3-external file            ...     16147 MB
Size of the 1-external file                ...        23 MB

Making pair/pair overlap matrices          ... done (  164.711 sec)
Size of the pair overlap file              ... 3306 MB
Redoing the guess amplitudes               ... done (    0.609 sec)

-------------------------
FINAL STARTUP INFORMATION
-------------------------

E(0)                                       ...  -1031.392830281
E(SL-MP2)                                  ...     -3.031440004
E(SL-MP2) including corrections            ...     -3.032497893
Initial E(tot)                             ...  -1034.425328174
<T|T>                                      ...      0.927186569
Number of pairs included                   ... 499
Total number of pairs                      ... 1081

------------------------------------------------
                  RHF COUPLED CLUSTER ITERATIONS
------------------------------------------------

Number of PNO amplitudes to be optimized   ...      1365660
Number of non-PNO amplitudes               ...   1088582971
Untruncated number of regular amplitudes   ...   2358232849

Iter       E(tot)           E(Corr)          Delta-E          Residual     Time
  0  -1034.425617414     -3.004137878      0.027302126      0.011337251  174.46
                           *** Turning on DIIS ***
  1  -1034.490348299     -3.068868764     -0.064730886      0.006308365  105.51
  2  -1034.559477786     -3.137998251     -0.069129487      0.003011718  104.67
  3  -1034.575541225     -3.154061690     -0.016063439      0.001967472  104.68
  4  -1034.580151713     -3.158672178     -0.004610488      0.000868800  105.31
  5  -1034.581503114     -3.160023579     -0.001351401      0.000365654  104.99
  6  -1034.581904136     -3.160424601     -0.000401022      0.000084678  105.10
  7  -1034.581940505     -3.160460970     -0.000036369      0.000030992  105.50
  8  -1034.581946621     -3.160467086     -0.000006116      0.000018239  104.72
  9  -1034.581937202     -3.160457667      0.000009419      0.000011421  104.75
 10  -1034.581938254     -3.160458718     -0.000001051      0.000006370  105.01
               --- The Coupled-Cluster iterations have converged ---

----------------------
COUPLED CLUSTER ENERGY
----------------------

E(0)                                       ...  -1031.392830281
E(CORR)(strong-pairs)                      ...     -3.160458718
E(CORR)(weak-pairs)                        ...     -0.028649254
E(CORR)(corrected)                         ...     -3.189107973
E(TOT)                                     ...  -1034.581938254
Singles Norm <S|S>**1/2                    ...      0.098191199  
T1 diagnostic                              ...      0.010237140  

------------------
LARGEST AMPLITUDES
------------------
  23-> 70  23-> 70       0.053698
  23-> 69  23-> 69       0.053694
  41-> 70  41-> 70       0.038781
  32-> 70  32-> 70       0.038779
  56-> 70  56-> 70       0.038778
  57-> 70  57-> 70       0.038539
  31-> 70  31-> 70       0.038534
  40-> 70  40-> 70       0.038533
  27-> 70  27-> 70       0.038270
  24-> 70  24-> 70       0.038259
  37-> 70  37-> 70       0.038253
  55-> 70  55-> 70       0.037848
  30-> 70  30-> 70       0.037823
  46-> 70  46-> 70       0.037819
  39-> 70  39-> 70       0.036229
  26-> 70  26-> 70       0.036153


-------------------------------------------
DLPNO BASED TRIPLES CORRECTION
-------------------------------------------

Singles multiplier          ...  1.000000
TCutTNO                     ... 1.000e-09
TCutMP2Pairs                ... 1.000e-05
TCutDOStrong                ... 2.000e-02
TCutMKNStrong               ... 1.000e-02
TCutDOWeak                  ... 4.000e-02
TCutMKNWeak                 ... 1.000e-01

Fragment selection                          .... not used
Fock matrix occ-virt block is zero --> Setting DT_in_Triples to false.
Number of Triples that are to be computed   ...      5329

 . . . . . . . . .
10% done               (   2164.793 sec)
 . . . . . . . . .
20% done  
30% done  
40% done               (   2437.252 sec)
 . . . . . . . . .
50% done  
60% done  
70% done  
80% done  
90% done               (   4514.293 sec)
 . . . . . . . . .             (    778.437 sec)
Triples timings:
Total time for T0               ... 10415.813 sec
Total time for Iterative (T)    ...     0.000 sec
Total time of overall (T)       ... 10452.163 sec

Triples List generation         ...     0.000 sec
TNO generation                  ...   520.196 sec
Pair density generation         ...     0.021 sec
Look up tables                  ...     0.000 sec
Generating 3-index integrals    ...  8823.714 sec
  Make 4-ind.int. from 3-ind.int...   226.829 sec
  Projecting amplitudes (D + S) ...   690.335 sec
  Downprojecting integrals      ...     0.010 sec
  Energy contr. (sum over a,b,c)...    29.050 sec
Fitting ET(->0)                 ...     0.000 sec

Everything after 3-index        ...  1071.061 sec

Timing details:
 TNO integrals                  ...  9034.439 sec
   Reading 3-index integrals    ...   836.035 sec
   Sorting integrals            ...   741.573 sec
       Sorting integrals 1      ...     0.009 sec
       Sorting integrals 2      ...   695.387 sec
       Sorting integrals 3      ...    10.036 sec
       Sorting integrals 4      ...     0.367 sec
       Sorting integrals 5      ...     4.095 sec
       Sorting integrals 6      ...    31.680 sec
   Calculating local VM**-1/2   ...    22.987 sec
   Orthogonal. integrals        ...    30.685 sec
   Multipl. 3-index integrals   ...  7403.159 sec
   All concerning IRIab (w/TNO) ...   134.763 sec

 Calculate W0/W1                ...   124.775 sec
 W 3-ext contribution           ...    78.057 sec
 W 3-int contribution           ...    21.993 sec
 Sorting W                      ...    22.792 sec

 V exchange contribution        ...     8.092 sec

 Timings for Triples without generation
     of 3-index integrals       ...  1071.053 sec
       0 weak pairs             ...   788.474 sec
       1 weak pair              ...   282.579 sec
       2 weak pairs             ...     0.000 sec
       3 weak pairs             ...     0.000 sec
  Extra time for extrapolation  ...     0.000 sec

Number of Triples   (0, 1, 2, 3 weak pairs; overall):   3103    2226       0       0  (  5329)
Number of Atoms     (0, 1, 2, 3 weak pairs; overall):   17.0    13.4     0.0     0.0  (    34)
Number of PAOs      (0, 1, 2, 3 weak pairs; overall):  830.7   692.3     0.0     0.0  (  1546)
Number of AuxFcns   (0, 1, 2, 3 weak pairs; overall): 1124.2   745.9     0.0     0.0  (  3545)
Number of TNOs      (0, 1, 2, 3 weak pairs         ):  125.0    76.2     0.0     0.0
Aver. Number of NTNO, Atoms, PAOs, AuxFcns / Triples:   5329   104.6    15.5   772.9   966.2

Triples Correction (T)                     ...     -0.170734829
Final correlation energy                   ...     -3.359842802
E(CCSD)                                    ...  -1034.581938254
E(CCSD(T))                                 ...  -1034.752673083



--------------------------------------------------------------------------------
                                    TIMINGS
--------------------------------------------------------------------------------


Total execution time                   ...    27818.123 sec

Localization of occupied MO's          ...        6.067 sec (  0.0%)
Fock Matrix Formation                  ...       46.818 sec (  0.2%)
Global overlap, Fock, MKN matrices     ...        8.654 sec (  0.0%)
Differential overlap integrals         ...        7.344 sec (  0.0%)
Organizing maps                        ...        0.404 sec (  0.0%)
RI 3-index integral generations        ...      672.808 sec (  2.4%)
RI-PNO integral transformation         ...    14779.458 sec ( 53.1%)
Initial Guess                          ...      615.374 sec (  2.2%)
DIIS Solver                            ...        1.283 sec (  0.0%)
State Vector Update                    ...        0.127 sec (  0.0%)
Sigma-vector construction              ...     1223.300 sec (  4.4%)
  <0|H|D>                              ...        0.002 sec (  0.0% of sigma)
  <D|H|D>(0-ext)                       ...       28.794 sec (  2.4% of sigma)
  <D|H|D>(2-ext Fock)                  ...        0.042 sec (  0.0% of sigma)
  <D|H|D>(2-ext)                       ...      315.267 sec ( 25.8% of sigma)
  <D|H|D>(4-ext)                       ...      137.718 sec ( 11.3% of sigma)
  <D|H|D>(4-ext-corr)                  ...      483.356 sec ( 39.5% of sigma)
  CCSD doubles correction              ...        0.839 sec (  0.1% of sigma)
  <S|H|S>                              ...       10.200 sec (  0.8% of sigma)
  <S|H|D>(1-ext)                       ...        3.457 sec (  0.3% of sigma)
  <D|H|S>(1-ext)                       ...        0.052 sec (  0.0% of sigma)
  <S|H|D>(3-ext)                       ...        2.638 sec (  0.2% of sigma)
  CCSD singles correction              ...        0.002 sec (  0.0% of sigma)
  Fock-dressing                        ...      168.098 sec ( 13.7% of sigma)
  Singles amplitudes                   ...        5.202 sec (  0.4% of sigma)
  (ik|jl)-dressing                     ...       22.625 sec (  1.8% of sigma)
  (ij|ab),(ia|jb)-dressing             ...        9.200 sec (  0.8% of sigma)
  Pair energies                        ...        0.038 sec (  0.0% of sigma)
Total Time for computing (T)           ...    10452.207 sec ( 37.6% of ALL)


Maximum memory used throughout the entire MDCI-calculation: 8979.9 MB

-------------------------   --------------------
FINAL SINGLE POINT ENERGY     -1034.752673082896
-------------------------   --------------------


                            ***************************************
                            *     ORCA property calculations      *
                            ***************************************


  WARNING: The energy has been calculated at the MDCI level but the densities
           used in the property calculations are still SCF densities
           MDCI response densities have not been calculated 
           use %mdci Density linearized end
           or  %mdci Density unrelaxed end
           or  %mdci Density orbopt end

                                    ---------------------
                                    Active property flags
                                    ---------------------
   (+) Dipole Moment


------------------------------------------------------------------------------
                       ORCA ELECTRIC PROPERTIES CALCULATION
------------------------------------------------------------------------------

Dipole Moment Calculation                       ... on
Quadrupole Moment Calculation                   ... off
Polarizability Calculation                      ... off
GBWName                                         ... dlpno_qz.gbw
Electron density                                ... dlpno_qz.scfp
The origin for moment calculation is the CENTER OF MASS  = ( 0.325223,  0.184155  0.045083)

-------------
DIPOLE MOMENT
-------------
                                X             Y             Z
Electronic contribution:      4.68012       2.65026       0.64809
Nuclear contribution   :     -5.22191      -2.95686      -0.72373
                        -----------------------------------------
Total Dipole Moment    :     -0.54178      -0.30660      -0.07564
                        -----------------------------------------
Magnitude (a.u.)       :      0.62710
Magnitude (Debye)      :      1.59396



--------------------
Rotational spectrum 
--------------------
 
Rotational constants in cm-1:     0.011992     0.011984     0.007115 
Rotational constants in MHz :   359.515495   359.278509   213.300079 

 Dipole components along the rotational axes: 
x,y,z [a.u.] :     0.000204     0.000063    -0.627100 
x,y,z [Debye]:     0.000519     0.000160    -1.593961 

 

Timings for individual modules:

Sum of individual times         ...    28227.996 sec (= 470.467 min)
GTO integral calculation        ...       10.094 sec (=   0.168 min)   0.0 %
SCF iterations                  ...      386.589 sec (=   6.443 min)   1.4 %
MDCI module                     ...    27831.314 sec (= 463.855 min)  98.6 %
                             ****ORCA TERMINATED NORMALLY****
TOTAL RUN TIME: 0 days 7 hours 50 minutes 38 seconds 271 msec
