
                                 *****************
                                 * O   R   C   A *
                                 *****************

                                            #,                                       
                                            ###                                      
                                            ####                                     
                                            #####                                    
                                            ######                                   
                                           ########,                                 
                                     ,,################,,,,,                         
                               ,,#################################,,                 
                          ,,##########################################,,             
                       ,#########################################, ''#####,          
                    ,#############################################,,   '####,        
                  ,##################################################,,,,####,       
                ,###########''''           ''''###############################       
              ,#####''   ,,,,##########,,,,          '''####'''          '####       
            ,##' ,,,,###########################,,,                        '##       
           ' ,,###''''                  '''############,,,                           
         ,,##''                                '''############,,,,        ,,,,,,###''
      ,#''                                            '''#######################'''  
     '                                                          ''''####''''         
             ,#######,   #######,   ,#######,      ##                                
            ,#'     '#,  ##    ##  ,#'     '#,    #''#        ######   ,####,        
            ##       ##  ##   ,#'  ##            #'  '#       #        #'  '#        
            ##       ##  #######   ##           ,######,      #####,   #    #        
            '#,     ,#'  ##    ##  '#,     ,#' ,#      #,         ##   #,  ,#        
             '#######'   ##     ##  '#######'  #'      '#     #####' # '####'        



                  #######################################################
                  #                        -***-                        #
                  #          Department of theory and spectroscopy      #
                  #    Directorship and core code : Frank Neese         #
                  #        Max Planck Institute fuer Kohlenforschung    #
                  #                Kaiser Wilhelm Platz 1               #
                  #                 D-45470 Muelheim/Ruhr               #
                  #                      Germany                        #
                  #                                                     #
                  #                  All rights reserved                #
                  #                        -***-                        #
                  #######################################################


                         Program Version 5.0.3 -  RELEASE  -


 With contributions from (in alphabetic order):
   Daniel Aravena         : Magnetic Suceptibility
   Michael Atanasov       : Ab Initio Ligand Field Theory (pilot matlab implementation)
   Alexander A. Auer      : GIAO ZORA, VPT2 properties, NMR spectrum
   Ute Becker             : Parallelization
   Giovanni Bistoni       : ED, misc. LED, open-shell LED, HFLD
   Martin Brehm           : Molecular dynamics
   Dmytro Bykov           : SCF Hessian
   Vijay G. Chilkuri      : MRCI spin determinant printing, contributions to CSF-ICE
   Dipayan Datta          : RHF DLPNO-CCSD density
   Achintya Kumar Dutta   : EOM-CC, STEOM-CC
   Dmitry Ganyushin       : Spin-Orbit,Spin-Spin,Magnetic field MRCI
   Miquel Garcia          : C-PCM and meta-GGA Hessian, CC/C-PCM, Gaussian charge scheme
   Yang Guo               : DLPNO-NEVPT2, F12-NEVPT2, CIM, IAO-localization
   Andreas Hansen         : Spin unrestricted coupled pair/coupled cluster methods
   Benjamin Helmich-Paris : MC-RPA, TRAH-SCF, COSX integrals
   Lee Huntington         : MR-EOM, pCC
   Robert Izsak           : Overlap fitted RIJCOSX, COSX-SCS-MP3, EOM
   Marcus Kettner         : VPT2
   Christian Kollmar      : KDIIS, OOCD, Brueckner-CCSD(T), CCSD density, CASPT2, CASPT2-K
   Simone Kossmann        : Meta GGA functionals, TD-DFT gradient, OOMP2, MP2 Hessian
   Martin Krupicka        : Initial AUTO-CI
   Lucas Lang             : DCDCAS
   Marvin Lechner         : AUTO-CI (C++ implementation), FIC-MRCC
   Dagmar Lenk            : GEPOL surface, SMD
   Dimitrios Liakos       : Extrapolation schemes; Compound Job, initial MDCI parallelization
   Dimitrios Manganas     : Further ROCIS development; embedding schemes
   Dimitrios Pantazis     : SARC Basis sets
   Anastasios Papadopoulos: AUTO-CI, single reference methods and gradients
   Taras Petrenko         : DFT Hessian,TD-DFT gradient, ASA, ECA, R-Raman, ABS, FL, XAS/XES, NRVS
   Peter Pinski           : DLPNO-MP2, DLPNO-MP2 Gradient
   Christoph Reimann      : Effective Core Potentials
   Marius Retegan         : Local ZFS, SOC
   Christoph Riplinger    : Optimizer, TS searches, QM/MM, DLPNO-CCSD(T), (RO)-DLPNO pert. Triples
   Tobias Risthaus        : Range-separated hybrids, TD-DFT gradient, RPA, STAB
   Michael Roemelt        : Original ROCIS implementation
   Masaaki Saitow         : Open-shell DLPNO-CCSD energy and density
   Barbara Sandhoefer     : DKH picture change effects
   Avijit Sen             : IP-ROCIS
   Kantharuban Sivalingam : CASSCF convergence, NEVPT2, FIC-MRCI
   Bernardo de Souza      : ESD, SOC TD-DFT
   Georgi Stoychev        : AutoAux, RI-MP2 NMR, DLPNO-MP2 response
   Willem Van den Heuvel  : Paramagnetic NMR
   Boris Wezisla          : Elementary symmetry handling
   Frank Wennmohs         : Technical directorship


 We gratefully acknowledge several colleagues who have allowed us to
 interface, adapt or use parts of their codes:
   Stefan Grimme, W. Hujo, H. Kruse, P. Pracht,  : VdW corrections, initial TS optimization,
                  C. Bannwarth, S. Ehlert          DFT functionals, gCP, sTDA/sTD-DF
   Ed Valeev, F. Pavosevic, A. Kumar             : LibInt (2-el integral package), F12 methods
   Garnet Chan, S. Sharma, J. Yang, R. Olivares  : DMRG
   Ulf Ekstrom                                   : XCFun DFT Library
   Mihaly Kallay                                 : mrcc  (arbitrary order and MRCC methods)
   Jiri Pittner, Ondrej Demel                    : Mk-CCSD
   Frank Weinhold                                : gennbo (NPA and NBO analysis)
   Christopher J. Cramer and Donald G. Truhlar   : smd solvation model
   Lars Goerigk                                  : TD-DFT with DH, B97 family of functionals
   V. Asgeirsson, H. Jonsson                     : NEB implementation
   FAccTs GmbH                                   : IRC, NEB, NEB-TS, DLPNO-Multilevel, CI-OPT
                                                   MM, QMMM, 2- and 3-layer-ONIOM, Crystal-QMMM,
                                                   LR-CPCM, SF, NACMEs, symmetry and pop. for TD-DFT,
                                                   nearIR, NL-DFT gradient (VV10), updates on ESD,
                                                   ML-optimized integration grids
   S Lehtola, MJT Oliveira, MAL Marques          : LibXC Library
   Liviu Ungur et al                             : ANISO software


 Your calculation uses the libint2 library for the computation of 2-el integrals
 For citations please refer to: http://libint.valeyev.net

 Your ORCA version has been built with support for libXC version: 5.1.0
 For citations please refer to: https://tddft.org/programs/libxc/

 This ORCA versions uses:
   CBLAS   interface :  Fast vector & matrix operations
   LAPACKE interface :  Fast linear algebra routines
   SCALAPACK package :  Parallel linear algebra routines
   Shared memory     :  Shared parallel matrices
   BLAS/LAPACK       :  OpenBLAS 0.3.15  USE64BITINT DYNAMIC_ARCH NO_AFFINITY SkylakeX SINGLE_THREADED
        Core in use  :  SkylakeX
   Copyright (c) 2011-2014, The OpenBLAS Project


Your calculation utilizes the geometrical counterpoise correction gCP
Please cite in your paper:
H.Kruse, S. Grimme J.Chem.Phys., 136, (2012), 154101 
   

Your calculation utilizes the atom-pairwise dispersion correction
with the Becke-Johnson damping scheme (D3BJ)
Cite in your paper:
S.Grimme, S.Ehrlich, L.Goerigk, J Comput Chem, (2011), 32, 1456–1465 
S.Grimme, J.Antony, S.Ehrlich and H.Krieg, J.Chem.Phys., 132, (2010), 154104 
   

Your calculation employs the composite approach PBEh-3c.
Please cite in your paper:
S. Grimme, J. G. Brandenburg, C. Bannwarth, A. Hansen J.Chem.Phys., 143, (2015), 054107 
   

================================================================================

cite the ECPs for Sb [Def2-ECP] as follows:
Ce-Yb(ecp-28): M. Dolg, H. Stoll, H.Preuss, J. Chem. Phys., 1989, 90, 1730-1734.
Y-Cd(ecp-28), Hf-Hg(ecp-46): D. Andrae,U. Haeussermann, M. Dolg, H. Stoll, H. Preuss, Theor. Chim. Acta, 1990, 77, 123-141.
In-Sb(ecp-28), Tl-Bi(ecp-46): B. Metz, H. Stoll, M. Dolg, J. Chem. Phys., 2000, 113, 2563-2569.
Te-Xe(ecp-28), Po-Rn(ecp-46): K. A. Peterson, D. Figgen, E. Goll, H. Stoll, M. Dolg, J. Chem. Phys., 2003, 119, 11113-11123.
Rb(ecp-28), Cs(ecp-46): T. Leininger, A. Nicklass, W. Kuechle, H. Stoll, M. Dolg, A. Bergner, Chem. Phys. Lett., 1996, 255, 274-280.
Sr(ecp-28), Ba(ecp-46): M. Kaupp, P. V. Schleyer, H. Stoll and H. Preuss, J. Chem. Phys., 1991, 94, 1360-1366.
La(ecp-46): M. Dolg, H. Stoll, A. Savin, H. Preuss, Theor. Chim. Acta, 1989, 75, 173-194.
Lu(ecp-28): X. Cao, M. Dolg, J. Chem. Phys., 2001, 115, 7348-7355.

ECP parameters for Sb [Def2-ECP] have been obtained from:
TURBOMOLE (7.0.2)

----- Orbital basis set information -----
Your calculation utilizes the basis: def2-mSVP

----- AuxJ basis set information -----
Your calculation utilizes the auxiliary basis: def2/J
   F. Weigend, Phys. Chem. Chem. Phys. 8, 1057 (2006).

================================================================================
                                        WARNINGS
                       Please study these warnings very carefully!
================================================================================


INFO   : the flag for use of the SHARK integral package has been found!

================================================================================
                                       INPUT FILE
================================================================================
NAME = FREQ_Sb_5_M016973.inp
|  1> ! PBEh-3c DefGrid2 TightSCF Freq
|  2> %maxcore 2900
|  3> 
|  4> %pal
|  5>   nprocs = 12
|  6> end
|  7> 
|  8> * xyz 0 1
|  9>   Sb  -0.39636254801206      0.04712475729320     -0.49004579997257
| 10>   C   -3.73163384565822     -1.56390422958930     -0.62779127371033
| 11>   C   -2.91112286397230     -1.19561108165462      0.59775263136114
| 12>   N   -1.47746324797487     -1.37541031906200      0.39580235855089
| 13>   C   -0.87071330529180     -2.46440285833170      1.14408377042621
| 14>   C   -0.60586683188975     -2.12588531843648      2.60433390949498
| 15>   O   -0.54984761158656      0.09913643472614     -2.44167817337492
| 16>   C   4.75526348627274     -0.69036168279240     -0.00638019845284
| 17>   C   3.31363911293072     -1.08914643004517      0.07828125354952
| 18>   C   2.93804529996634     -1.66397770297089      1.40918958471664
| 19>   C   2.42203214766365     -0.90476463410071     -0.90816504489259
| 20>   C   2.73343668663961     -0.34311905893370     -2.26535315251683
| 21>   O   1.12127758684546     -1.26871687386511     -0.75180661518694
| 22>   C   -1.37945944497933      3.03610285303906     -1.36775001968032
| 23>   S   -2.20239246350012      1.69237881625841     -0.46991412237407
| 24>   C   -0.62384229806903      2.31703847714197      2.48463621920404
| 25>   C   0.32312264682208      2.58429904801623      1.59469237260205
| 26>   S   1.27752768713358      1.37374916329473      0.75202787825432
| 27>   H   -3.53777421113112     -2.59380636844763     -0.92834479276250
| 28>   H   -3.49569358150539     -0.91424919053252     -1.47024455577596
| 29>   H   -4.79831875986934     -1.46490572313036     -0.42090122683340
| 30>   H   -3.15883750255640     -0.18199888910424      0.92448160548329
| 31>   H   -3.20414854684347     -1.83257005398710      1.43696270943367
| 32>   H   0.04760089374761     -2.77964980017120      0.65571853131676
| 33>   H   -1.54734301269276     -3.32320895947476      1.07968219397977
| 34>   H   -0.18814903096100     -2.98234328298042      3.13590162807688
| 35>   H   0.10586366418656     -1.30312515086316      2.68938943507695
| 36>   H   -1.52135904813176     -1.83201478032457      3.12085074171311
| 37>   H   0.07435588983538     -0.51953794859462     -2.83844184787454
| 38>   H   5.05477075757445     -0.27028626367346     -0.96259238558971
| 39>   H   4.97701479628373      0.06063665191442      0.75774702266583
| 40>   H   5.40830826644725     -1.54248648524297      0.19847169728911
| 41>   H   3.67406275119454     -2.40738002056932      1.72464691755275
| 42>   H   2.92764685063986     -0.88441986115513      2.17692209500152
| 43>   H   1.96446124624525     -2.14256871396875      1.41148127411093
| 44>   H   2.36631863775875     -1.01569768870088     -3.04507622111483
| 45>   H   2.25787083719837      0.62980680543278     -2.41957186298242
| 46>   H   3.79570214938148     -0.20648520495722     -2.44182519427195
| 47>   H   -2.10992274581784      3.83864157122752     -1.45554736247683
| 48>   H   -1.07969434845067      2.72145624582200     -2.36323283224314
| 49>   H   -0.51713467566510      3.41874055998104     -0.82392583173765
| 50>   H   -0.90489807888158      1.30466097923361      2.74336675011882
| 51>   H   -1.16582242794673      3.11686770206037      2.97065651741285
| 52>   H   0.58096809461954      3.61074771831886      1.35882102033226
| 53> *
| 54> 
| 55> 
| 56>                          ****END OF INPUT****
================================================================================

                       ****************************
                       * Single Point Calculation *
                       ****************************

---------------------------------
CARTESIAN COORDINATES (ANGSTROEM)
---------------------------------
  Sb    -0.396363    0.047125   -0.490046
  C     -3.731634   -1.563904   -0.627791
  C     -2.911123   -1.195611    0.597753
  N     -1.477463   -1.375410    0.395802
  C     -0.870713   -2.464403    1.144084
  C     -0.605867   -2.125885    2.604334
  O     -0.549848    0.099136   -2.441678
  C      4.755263   -0.690362   -0.006380
  C      3.313639   -1.089146    0.078281
  C      2.938045   -1.663978    1.409190
  C      2.422032   -0.904765   -0.908165
  C      2.733437   -0.343119   -2.265353
  O      1.121278   -1.268717   -0.751807
  C     -1.379459    3.036103   -1.367750
  S     -2.202392    1.692379   -0.469914
  C     -0.623842    2.317038    2.484636
  C      0.323123    2.584299    1.594692
  S      1.277528    1.373749    0.752028
  H     -3.537774   -2.593806   -0.928345
  H     -3.495694   -0.914249   -1.470245
  H     -4.798319   -1.464906   -0.420901
  H     -3.158838   -0.181999    0.924482
  H     -3.204149   -1.832570    1.436963
  H      0.047601   -2.779650    0.655719
  H     -1.547343   -3.323209    1.079682
  H     -0.188149   -2.982343    3.135902
  H      0.105864   -1.303125    2.689389
  H     -1.521359   -1.832015    3.120851
  H      0.074356   -0.519538   -2.838442
  H      5.054771   -0.270286   -0.962592
  H      4.977015    0.060637    0.757747
  H      5.408308   -1.542486    0.198472
  H      3.674063   -2.407380    1.724647
  H      2.927647   -0.884420    2.176922
  H      1.964461   -2.142569    1.411481
  H      2.366319   -1.015698   -3.045076
  H      2.257871    0.629807   -2.419572
  H      3.795702   -0.206485   -2.441825
  H     -2.109923    3.838642   -1.455547
  H     -1.079694    2.721456   -2.363233
  H     -0.517135    3.418741   -0.823926
  H     -0.904898    1.304661    2.743367
  H     -1.165822    3.116868    2.970657
  H      0.580968    3.610748    1.358821

----------------------------
CARTESIAN COORDINATES (A.U.)
----------------------------
  NO LB      ZA    FRAG     MASS         X           Y           Z
   0 Sb   23.0000*   0   121.750   -0.749017    0.089053   -0.926052
   1 C     6.0000    0    12.011   -7.051766   -2.955351   -1.186354
   2 C     6.0000    0    12.011   -5.501225   -2.259378    1.129589
   3 N     7.0000    0    14.007   -2.792001   -2.599149    0.747958
   4 C     6.0000    0    12.011   -1.645410   -4.657046    2.162005
   5 C     6.0000    0    12.011   -1.144922   -4.017341    4.921478
   6 O     8.0000    0    15.999   -1.039061    0.187341   -4.614103
   7 C     6.0000    0    12.011    8.986146   -1.304595   -0.012057
   8 C     6.0000    0    12.011    6.261870   -2.058188    0.147930
   9 C     6.0000    0    12.011    5.552101   -3.144462    2.662982
  10 C     6.0000    0    12.011    4.576977   -1.709757   -1.716183
  11 C     6.0000    0    12.011    5.165447   -0.648401   -4.280897
  12 O     8.0000    0    15.999    2.118908   -2.397527   -1.420709
  13 C     6.0000    0    12.011   -2.606801    5.737403   -2.584673
  14 S    16.0000    0    32.060   -4.161919    3.198132   -0.888009
  15 C     6.0000    0    12.011   -1.178891    4.378568    4.695282
  16 C     6.0000    0    12.011    0.610613    4.883617    3.013532
  17 S    16.0000    0    32.060    2.414177    2.596010    1.421127
  18 H     1.0000    0     1.008   -6.685424   -4.901584   -1.754317
  19 H     1.0000    0     1.008   -6.605904   -1.727681   -2.778360
  20 H     1.0000    0     1.008   -9.067508   -2.768271   -0.795388
  21 H     1.0000    0     1.008   -5.969338   -0.343928    1.747017
  22 H     1.0000    0     1.008   -6.054963   -3.463056    2.715466
  23 H     1.0000    0     1.008    0.089953   -5.252777    1.239128
  24 H     1.0000    0     1.008   -2.924055   -6.279955    2.040304
  25 H     1.0000    0     1.008   -0.355550   -5.635812    5.925995
  26 H     1.0000    0     1.008    0.200053   -2.462550    5.082209
  27 H     1.0000    0     1.008   -2.874952   -3.462006    5.897553
  28 H     1.0000    0     1.008    0.140512   -0.981784   -5.363878
  29 H     1.0000    0     1.008    9.552132   -0.510767   -1.819036
  30 H     1.0000    0     1.008    9.405195    0.114587    1.431934
  31 H     1.0000    0     1.008   10.220221   -2.914877    0.375057
  32 H     1.0000    0     1.008    6.942972   -4.549289    3.259110
  33 H     1.0000    0     1.008    5.532451   -1.671311    4.113787
  34 H     1.0000    0     1.008    3.712294   -4.048868    2.667313
  35 H     1.0000    0     1.008    4.471694   -1.919390   -5.754360
  36 H     1.0000    0     1.008    4.266758    1.190162   -4.572328
  37 H     1.0000    0     1.008    7.172838   -0.390200   -4.614381
  38 H     1.0000    0     1.008   -3.987176    7.253981   -2.750586
  39 H     1.0000    0     1.008   -2.040327    5.142807   -4.465863
  40 H     1.0000    0     1.008   -0.977243    6.460483   -1.556994
  41 H     1.0000    0     1.008   -1.710010    2.465452    5.184212
  42 H     1.0000    0     1.008   -2.203085    5.890026    5.613727
  43 H     1.0000    0     1.008    1.097871    6.823324    2.567800
* core charge reduced due to ECP

--------------------------------
INTERNAL COORDINATES (ANGSTROEM)
--------------------------------
 Sb     0   0   0     0.000000000000     0.00000000     0.00000000
 C      1   0   0     3.706537851016     0.00000000     0.00000000
 C      2   1   0     1.520143406768    51.61384572     0.00000000
 N      3   2   1     1.458935081833   112.88935141   323.97343696
 C      4   3   2     1.453951620546   115.54034976   249.50727082
 C      5   4   3     1.522191922177   113.56273362   281.26580631
 O      1   2   3     1.958349253898    84.49020341   182.12667163
 C      1   2   3     5.226573395689   146.00030317    82.44363306
 C      8   1   2     1.498158092429    25.08535843   344.65953545
 C      9   8   1     1.497604317115   113.18635292   230.90076682
 C      9   8   1     1.342399317230   124.12766013    48.19918556
 C     11   9   8     1.501458656932   125.29982324     3.36800680
 O     11   9   8     1.359732186447   120.93833792   181.28371779
 C      7   1   2     3.235328301069    73.34592551    98.96730210
 S     14   7   1     1.813538623378    66.92600568   312.00303367
 C     15  14   7     3.407548684559    94.77380324   113.66864848
 C     16  15  14     1.326714313521    77.64125527   323.98959447
 S     17  16  15     1.756816283624   124.79893965   282.11832909
 H      2   1   3     1.090235016562   105.11952670   255.20955349
 H      2   1   3     1.089700422356    64.83504315   151.93402000
 H      2   1   3     1.091064114515   146.43339383    67.68354810
 H      3   2   1     1.093400220224   110.07317421    90.22987009
 H      3   2   1     1.093551250923   109.44753826   204.51185590
 H      5   4   3     1.086822068817   109.79170955   157.13550026
 H      5   4   3     1.095227484748   107.41142585    42.83584046
 H      6   5   4     1.091133651613   111.06313401   177.73817049
 H      6   5   4     1.091205312864   110.85090160   297.43849065
 H      6   5   4     1.091455692703   111.58721292    57.71801690
 H      7   1   2     0.964266258441   110.01588714   249.91377079
 H      8   1   2     1.086512636898    97.79968842   119.27069057
 H      8   1   2     1.094103538189    99.64530762   228.15513372
 H      8   1   2     1.092954007749   135.74923047   354.03270906
 H     10   9   8     1.092649085097   110.41285648   313.05008684
 H     10   9   8     1.094180864315   110.63839125    71.03108758
 H     10   9   8     1.084859676321   113.34578570   192.14355405
 H     12  11   9     1.093208918157   110.17703851   127.21778991
 H     12  11   9     1.093860606003   111.71437610   246.63224057
 H     12  11   9     1.085458016189   113.39157258     7.49986156
 H     14   7   1     1.088739363422   144.53020377   226.03586969
 H     14   7   1     1.086207913172    50.36165132   161.87646045
 H     14   7   1     1.088926246326   106.36150104    59.27232187
 H     16  15  14     1.082054544756    85.15186591   199.41458924
 H     16  15  14     1.081519755015   107.04167379    82.61483036
 H     17  16  15     1.084304589374   120.42082634   103.97714723

---------------------------
INTERNAL COORDINATES (A.U.)
---------------------------
 Sb     0   0   0     0.000000000000     0.00000000     0.00000000
 C      1   0   0     7.004341443433     0.00000000     0.00000000
 C      2   1   0     2.872654723078    51.61384572     0.00000000
 N      3   2   1     2.756987751834   112.88935141   323.97343696
 C      4   3   2     2.747570374803   115.54034976   249.50727082
 C      5   4   3     2.876525856181   113.56273362   281.26580631
 O      1   2   3     3.700743764436    84.49020341   182.12667163
 C      1   2   3     9.876792336691   146.00030317    82.44363306
 C      8   1   2     2.831108500009    25.08535843   344.65953545
 C      9   8   1     2.830062016325   113.18635292   230.90076682
 C      9   8   1     2.536767071927   124.12766013    48.19918556
 C     11   9   8     2.837345663007   125.29982324     3.36800680
 O     11   9   8     2.569521447862   120.93833792   181.28371779
 C      7   1   2     6.113884442346    73.34592551    98.96730210
 S     14   7   1     3.427091331474    66.92600568   312.00303367
 C     15  14   7     6.439333801819    94.77380324   113.66864848
 C     16  15  14     2.507126710508    77.64125527   323.98959447
 S     17  16  15     3.319901643662   124.79893965   282.11832909
 H      2   1   3     2.060245602914   105.11952670   255.20955349
 H      2   1   3     2.059235366272    64.83504315   151.93402000
 H      2   1   3     2.061812370984   146.43339383    67.68354810
 H      3   2   1     2.066226970993   110.07317421    90.22987009
 H      3   2   1     2.066512377652   109.44753826   204.51185590
 H      5   4   3     2.053796066365   109.79170955   157.13550026
 H      5   4   3     2.069680000517   107.41142585    42.83584046
 H      6   5   4     2.061943777054   111.06313401   177.73817049
 H      6   5   4     2.062079197193   110.85090160   297.43849065
 H      6   5   4     2.062552346519   111.58721292    57.71801690
 H      7   1   2     1.822199148634   110.01588714   249.91377079
 H      8   1   2     2.053211324782    97.79968842   119.27069057
 H      8   1   2     2.067556049332    99.64530762   228.15513372
 H      8   1   2     2.065383751616   135.74923047   354.03270906
 H     10   9   8     2.064807531313   110.41285648   313.05008684
 H     10   9   8     2.067702174533   110.63839125    71.03108758
 H     10   9   8     2.050087681982   113.34578570   192.14355405
 H     12  11   9     2.065865462477   110.17703851   127.21778991
 H     12  11   9     2.067096974031   111.71437610   246.63224057
 H     12  11   9     2.051218380466   113.39157258     7.49986156
 H     14   7   1     2.057419228088   144.53020377   226.03586969
 H     14   7   1     2.052635480394    50.36165132   161.87646045
 H     14   7   1     2.057772385595   106.36150104    59.27232187
 H     16  15  14     2.044786751553    85.15186591   199.41458924
 H     16  15  14     2.043776145403   107.04167379    82.61483036
 H     17  16  15     2.049038719671   120.42082634   103.97714723

---------------------
BASIS SET INFORMATION
---------------------
There are 6 groups of distinct atoms

 Group   1 Type Sb  : 10s7p6d contracted to 4s4p2d pattern {6211/4111/51}
 Group   2 Type C   : 8s4p1d contracted to 4s2p1d pattern {5111/31/1}
 Group   3 Type N   : 8s4p1d contracted to 4s2p1d pattern {5111/31/1}
 Group   4 Type O   : 8s4p1d contracted to 4s2p1d pattern {5111/31/1}
 Group   5 Type S   : 10s7p1d contracted to 4s3p1d pattern {5311/511/1}
 Group   6 Type H   : 4s contracted to 2s pattern {31}

Atom   0Sb   basis set group =>   1
Atom   1C    basis set group =>   2
Atom   2C    basis set group =>   2
Atom   3N    basis set group =>   3
Atom   4C    basis set group =>   2
Atom   5C    basis set group =>   2
Atom   6O    basis set group =>   4
Atom   7C    basis set group =>   2
Atom   8C    basis set group =>   2
Atom   9C    basis set group =>   2
Atom  10C    basis set group =>   2
Atom  11C    basis set group =>   2
Atom  12O    basis set group =>   4
Atom  13C    basis set group =>   2
Atom  14S    basis set group =>   5
Atom  15C    basis set group =>   2
Atom  16C    basis set group =>   2
Atom  17S    basis set group =>   5
Atom  18H    basis set group =>   6
Atom  19H    basis set group =>   6
Atom  20H    basis set group =>   6
Atom  21H    basis set group =>   6
Atom  22H    basis set group =>   6
Atom  23H    basis set group =>   6
Atom  24H    basis set group =>   6
Atom  25H    basis set group =>   6
Atom  26H    basis set group =>   6
Atom  27H    basis set group =>   6
Atom  28H    basis set group =>   6
Atom  29H    basis set group =>   6
Atom  30H    basis set group =>   6
Atom  31H    basis set group =>   6
Atom  32H    basis set group =>   6
Atom  33H    basis set group =>   6
Atom  34H    basis set group =>   6
Atom  35H    basis set group =>   6
Atom  36H    basis set group =>   6
Atom  37H    basis set group =>   6
Atom  38H    basis set group =>   6
Atom  39H    basis set group =>   6
Atom  40H    basis set group =>   6
Atom  41H    basis set group =>   6
Atom  42H    basis set group =>   6
Atom  43H    basis set group =>   6
---------------------------------
AUXILIARY/J BASIS SET INFORMATION
---------------------------------
There are 6 groups of distinct atoms

 Group   1 Type Sb  : 11s5p5d3f1g contracted to 8s4p3d2f1g pattern {41111111/2111/311/21/1}
 Group   2 Type C   : 12s5p4d2f1g contracted to 6s4p3d1f1g pattern {711111/2111/211/2/1}
 Group   3 Type N   : 12s5p4d2f1g contracted to 6s4p3d1f1g pattern {711111/2111/211/2/1}
 Group   4 Type O   : 12s5p4d2f1g contracted to 6s4p3d1f1g pattern {711111/2111/211/2/1}
 Group   5 Type S   : 14s5p5d2f1g contracted to 8s4p3d1f1g pattern {71111111/2111/311/2/1}
 Group   6 Type H   : 5s2p1d contracted to 3s1p1d pattern {311/2/1}

Atom   0Sb   basis set group =>   1
Atom   1C    basis set group =>   2
Atom   2C    basis set group =>   2
Atom   3N    basis set group =>   3
Atom   4C    basis set group =>   2
Atom   5C    basis set group =>   2
Atom   6O    basis set group =>   4
Atom   7C    basis set group =>   2
Atom   8C    basis set group =>   2
Atom   9C    basis set group =>   2
Atom  10C    basis set group =>   2
Atom  11C    basis set group =>   2
Atom  12O    basis set group =>   4
Atom  13C    basis set group =>   2
Atom  14S    basis set group =>   5
Atom  15C    basis set group =>   2
Atom  16C    basis set group =>   2
Atom  17S    basis set group =>   5
Atom  18H    basis set group =>   6
Atom  19H    basis set group =>   6
Atom  20H    basis set group =>   6
Atom  21H    basis set group =>   6
Atom  22H    basis set group =>   6
Atom  23H    basis set group =>   6
Atom  24H    basis set group =>   6
Atom  25H    basis set group =>   6
Atom  26H    basis set group =>   6
Atom  27H    basis set group =>   6
Atom  28H    basis set group =>   6
Atom  29H    basis set group =>   6
Atom  30H    basis set group =>   6
Atom  31H    basis set group =>   6
Atom  32H    basis set group =>   6
Atom  33H    basis set group =>   6
Atom  34H    basis set group =>   6
Atom  35H    basis set group =>   6
Atom  36H    basis set group =>   6
Atom  37H    basis set group =>   6
Atom  38H    basis set group =>   6
Atom  39H    basis set group =>   6
Atom  40H    basis set group =>   6
Atom  41H    basis set group =>   6
Atom  42H    basis set group =>   6
Atom  43H    basis set group =>   6
-------------------------
ECP PARAMETER INFORMATION
-------------------------

 Group 1, Type Sb ECP Def2-ECP (replacing 28 core electrons, lmax=3)

Atom   0Sb   ECP group =>   1



           ************************************************************
           *        Program running with 12 parallel MPI-processes    *
           *              working on a common directory               *
           ************************************************************
------------------------------------------------------------------------------
                           ORCA GTO INTEGRAL CALCULATION
                           -- RI-GTO INTEGRALS CHOSEN --
------------------------------------------------------------------------------
------------------------------------------------------------------------------
                   ___                                                        
                  /   \      - P O W E R E D   B Y -                         
                 /     \                                                     
                 |  |  |   _    _      __       _____    __    __             
                 |  |  |  | |  | |    /  \     |  _  \  |  |  /  |          
                  \  \/   | |  | |   /    \    | | | |  |  | /  /          
                 / \  \   | |__| |  /  /\  \   | |_| |  |  |/  /          
                |  |  |   |  __  | /  /__\  \  |    /   |      \           
                |  |  |   | |  | | |   __   |  |    \   |  |\   \          
                \     /   | |  | | |  |  |  |  | |\  \  |  | \   \       
                 \___/    |_|  |_| |__|  |__|  |_| \__\ |__|  \__/        
                                                                              
                      - O R C A' S   B I G   F R I E N D -                    
                                      &                                       
                       - I N T E G R A L  F E E D E R -                       
                                                                              
 v1 FN, 2020, v2 2021                                                         
------------------------------------------------------------------------------


Reading SHARK input file FREQ_Sb_5_M016973.SHARKINP.tmp ... ok
----------------------
SHARK INTEGRAL PACKAGE
----------------------

Number of atoms                             ...     44
Number of basis functions                   ...    339
Number of shells                            ...    183
Maximum angular momentum                    ...      2
Integral batch strategy                     ... SHARK/LIBINT Hybrid
RI-J (if used) integral strategy            ... SPLIT-RIJ (Revised 2003 algorithm where possible)
Printlevel                                  ...      1
Contraction scheme used                     ... SEGMENTED contraction
Coulomb Range Separation                    ... NOT USED
Exchange Range Separation                   ... NOT USED
Finite Nucleus Model                        ... NOT USED
Auxiliary Coulomb fitting basis             ... AVAILABLE
   # of basis functions in Aux-J            ...   1181
   # of shells in Aux-J                     ...    407
   Maximum angular momentum in Aux-J        ...      4
Auxiliary J/K fitting basis                 ... NOT available
Auxiliary Correlation fitting basis         ... NOT available
Auxiliary 'external' fitting basis          ... NOT available
Integral threshold                          ...     2.500000e-11
Primitive cut-off                           ...     2.500000e-12
Primitive pair pre-selection threshold      ...     2.500000e-12

Calculating pre-screening integrals         ... done (  0.0 sec) Dimension = 183
Organizing shell pair data                  ... done (  0.1 sec)
Shell pair information
Total number of shell pairs                 ...     16836
Shell pairs after pre-screening             ...     12408
Total number of primitive shell pairs       ...     64612
Primitive shell pairs kept                  ...     29037
          la=0 lb=0:   5220 shell pairs
          la=1 lb=0:   4031 shell pairs
          la=1 lb=1:    763 shell pairs
          la=2 lb=0:   1611 shell pairs
          la=2 lb=1:    646 shell pairs
          la=2 lb=2:    137 shell pairs

Calculating one electron integrals          ... done (  0.0 sec)
Calculating ECP integrals                   ... done (  0.3 sec)
Calculating RI/J V-Matrix + Cholesky decomp.... done (  0.1 sec)
Calculating Nuclear repulsion               ... done (  0.0 sec) ENN=   2206.767894667690 Eh

SHARK setup successfully completed in   0.6 seconds

Maximum memory used throughout the entire GTOINT-calculation: 22.7 MB


           ************************************************************
           *        Program running with 12 parallel MPI-processes    *
           *              working on a common directory               *
           ************************************************************
-------------------------------------------------------------------------------
                                 ORCA SCF
-------------------------------------------------------------------------------

------------
SCF SETTINGS
------------
Hamiltonian:
 Density Functional     Method          .... DFT(GTOs)
 Exchange Functional    Exchange        .... PBE
   PBE kappa parameter   XKappa         ....  1.024500
   PBE mue parameter    XMuePBE         ....  0.123457
 Correlation Functional Correlation     .... PBE
   PBE beta parameter  CBetaPBE         ....  0.030000
 LDA part of GGA corr.  LDAOpt          .... PW91-LDA
 Gradients option       PostSCFGGA      .... off
 Hybrid DFT is turned on
   Fraction HF Exchange ScalHFX         ....  0.420000
   Scaling of DF-GGA-X  ScalDFX         ....  0.580000
   Scaling of DF-GGA-C  ScalDFC         ....  1.000000
   Scaling of DF-LDA-C  ScalLDAC        ....  1.000000
   Perturbative correction              ....  0.000000
   Density functional embedding theory  .... OFF
 RI-approximation to the Coulomb term is turned on
   Number of AuxJ basis functions       .... 1181
   RIJ-ON(X) (HFX calculated with O(N)) .... on
   Number of AuxJ basis functions       .... 1181
   RIJ-COSX (HFX calculated with COS-X)).... on


General Settings:
 Integral files         IntName         .... FREQ_Sb_5_M016973
 Hartree-Fock type      HFTyp           .... RHF
 Total Charge           Charge          ....    0
 Multiplicity           Mult            ....    1
 Number of Electrons    NEL             ....  176
 Basis Dimension        Dim             ....  339
 Nuclear Repulsion      ENuc            ....   2206.7678946677 Eh

Convergence Acceleration:
 DIIS                   CNVDIIS         .... on
   Start iteration      DIISMaxIt       ....    12
   Startup error        DIISStart       ....  0.200000
   # of expansion vecs  DIISMaxEq       ....     5
   Bias factor          DIISBfac        ....   1.050
   Max. coefficient     DIISMaxC        ....  10.000
 Trust-Rad. Augm. Hess. CNVTRAH         .... auto
   Auto Start mean grad. ratio tolernc. ....  1.125000
   Auto Start start iteration           ....    20
   Auto Start num. interpolation iter.  ....    10
   Max. Number of Micro iterations      ....    16
   Max. Number of Macro iterations      .... Maxiter - #DIIS iter
   Number of Davidson start vectors     ....     2
   Converg. threshold I  (grad. norm)   ....   1.000e-05
   Converg. threshold II (energy diff.) ....   1.000e-08
   Grad. Scal. Fac. for Micro threshold ....   0.100
   Minimum threshold for Micro iter.    ....   0.010
   NR start threshold (gradient norm)   ....   0.001
   Initial trust radius                 ....   0.400
   Minimum AH scaling param. (alpha)    ....   1.000
   Maximum AH scaling param. (alpha)    .... 1000.000
   Orbital update algorithm             .... Taylor
   White noise on init. David. guess    .... on
   Maximum white noise                  ....   0.010
   Quad. conv. algorithm                .... NR
   COSX micro iterations for RIJONX calc.... off
 SOSCF                  CNVSOSCF        .... on
   Start iteration      SOSCFMaxIt      ....   150
   Startup grad/error   SOSCFStart      ....  0.003300
 Level Shifting         CNVShift        .... on
   Level shift para.    LevelShift      ....    0.2500
   Turn off err/grad.   ShiftErr        ....    0.0010
 Zerner damping         CNVZerner       .... off
 Static damping         CNVDamp         .... on
   Fraction old density DampFac         ....    0.7000
   Max. Damping (<1)    DampMax         ....    0.9800
   Min. Damping (>=0)   DampMin         ....    0.0000
   Turn off err/grad.   DampErr         ....    0.1000
 Fernandez-Rico         CNVRico         .... off

SCF Procedure:
 Maximum # iterations   MaxIter         ....   125
 SCF integral mode      SCFMode         .... Direct
   Integral package                     .... SHARK and LIBINT hybrid scheme
 Reset frequency        DirectResetFreq ....    20
 Integral Threshold     Thresh          ....  2.500e-11 Eh
 Primitive CutOff       TCut            ....  2.500e-12 Eh

Convergence Tolerance:
 Convergence Check Mode ConvCheckMode   .... Total+1el-Energy
 Convergence forced     ConvForced      .... 0
 Energy Change          TolE            ....  1.000e-08 Eh
 1-El. energy change                    ....  1.000e-05 Eh
 Orbital Gradient       TolG            ....  1.000e-05
 Orbital Rotation angle TolX            ....  1.000e-05
 DIIS Error             TolErr          ....  5.000e-07


Diagonalization of the overlap matrix:
Smallest eigenvalue                        ... 1.757e-03
Time for diagonalization                   ...    0.046 sec
Threshold for overlap eigenvalues          ... 1.000e-08
Number of eigenvalues below threshold      ... 0
Time for construction of square roots      ...    0.011 sec
Total time needed                          ...    0.058 sec

--------------------------------
INITIAL GUESS: MINIMAL BASIS EHT
--------------------------------
The minimal basis has 132 functions
EHT matrix was diagonalized
Basis set overlap was calculated now projecting the orbitals
Using GuessMode=FMatrix for the initial guess
C*T matrix was formed
Effective Fockian was calculated
Effective Fockian was diagonalized
Initial density was built
                      ------------------
                      INITIAL GUESS DONE
                      ------------------
-------------------
DFT GRID GENERATION
-------------------

General Integration Accuracy     IntAcc      ... 4.388
Radial Grid Type                 RadialGrid  ... OptM3 with GC (2021)
Angular Grid (max. ang.)         AngularGrid ... 4 (Lebedev-302)
Angular grid pruning method      GridPruning ... 4 (adaptive)
Weight generation scheme         WeightScheme... Becke
Basis function cutoff            BFCut       ... 1.0000e-11
Integration weight cutoff        WCut        ... 1.0000e-14
Angular grids for H and He will be reduced by one unit
Partially contracted basis set               ... off
Rotationally invariant grid construction     ... off

Total number of grid points                  ...   196316
Total number of batches                      ...     3094
Average number of points per batch           ...       63
Average number of grid points per atom       ...     4462
Time for grid setup =    0.925 sec

--------------------
COSX GRID GENERATION
--------------------

GRIDX 1
-------
General Integration Accuracy     IntAcc      ... 3.816
Radial Grid Type                 RadialGrid  ... OptM3 with GC (2021)
Angular Grid (max. ang.)         AngularGrid ... 1 (Lebedev-50)
Angular grid pruning method      GridPruning ... 4 (adaptive)
Weight generation scheme         WeightScheme... Becke
Basis function cutoff            BFCut       ... 1.0000e-11
Integration weight cutoff        WCut        ... 1.0000e-14
Angular grids for H and He will be reduced by one unit
Partially contracted basis set               ... on
Rotationally invariant grid construction     ... off

Total number of grid points                  ...    24677
Total number of batches                      ...      410
Average number of points per batch           ...       60
Average number of grid points per atom       ...      561
UseSFitting                                  ... on

GRIDX 2
-------
General Integration Accuracy     IntAcc      ... 4.020
Radial Grid Type                 RadialGrid  ... OptM3 with GC (2021)
Angular Grid (max. ang.)         AngularGrid ... 2 (Lebedev-110)
Angular grid pruning method      GridPruning ... 4 (adaptive)
Weight generation scheme         WeightScheme... Becke
Basis function cutoff            BFCut       ... 1.0000e-11
Integration weight cutoff        WCut        ... 1.0000e-14
Angular grids for H and He will be reduced by one unit
Partially contracted basis set               ... on
Rotationally invariant grid construction     ... off

Total number of grid points                  ...    51721
Total number of batches                      ...      832
Average number of points per batch           ...       62
Average number of grid points per atom       ...     1175
UseSFitting                                  ... on

GRIDX 3
-------
General Integration Accuracy     IntAcc      ... 4.338
Radial Grid Type                 RadialGrid  ... OptM3 with GC (2021)
Angular Grid (max. ang.)         AngularGrid ... 3 (Lebedev-194)
Angular grid pruning method      GridPruning ... 4 (adaptive)
Weight generation scheme         WeightScheme... Becke
Basis function cutoff            BFCut       ... 1.0000e-11
Integration weight cutoff        WCut        ... 1.0000e-14
Angular grids for H and He will be reduced by one unit
Partially contracted basis set               ... on
Rotationally invariant grid construction     ... off

Total number of grid points                  ...   112375
Total number of batches                      ...     1778
Average number of points per batch           ...       63
Average number of grid points per atom       ...     2554
UseSFitting                                  ... on

Time for X-Grid setup             =    0.761 sec

--------------
SCF ITERATIONS
--------------
ITER       Energy         Delta-E        Max-DP      RMS-DP      [F,P]     Damp
               ***  Starting incremental Fock matrix formation  ***
  0  -1708.4607343581   0.000000000000 0.44916293  0.00480359  0.9697884 0.7000
  1  -1709.7824948026  -1.321760444495 0.23660164  0.00310324  0.6744334 0.7000
  2  -1710.5778309929  -0.795336190296 0.15126588  0.00201790  0.4684809 0.7000
  3  -1711.1270161638  -0.549185170977 0.10106013  0.00138891  0.3247868 0.7000
  4  -1711.5164886856  -0.389472521738 0.07168040  0.00098895  0.2249433 0.7000
                               ***Turning on DIIS***
  5  -1711.7916696524  -0.275180966832 0.05309514  0.00071516  0.1557907 0.7000
  6  -1711.9856390555  -0.193969403062 0.04400135  0.00054729  0.1079578 0.7000
  7  -1712.1222577762  -0.136618720723 0.11084432  0.00136776  0.0754221 0.0000
                      *** Initiating the SOSCF procedure ***
                           *** Shutting down DIIS ***
                      *** Re-Reading the Fockian *** 
                      *** Removing any level shift *** 
ITER      Energy       Delta-E        Grad      Rot      Max-DP    RMS-DP
  8  -1712.44456297  -0.3223051928  0.001562  0.001562  0.007940  0.000082
               *** Restarting incremental Fock matrix formation ***
  9  -1712.44458046  -0.0000174953  0.001003  0.003467  0.007315  0.000074
 10  -1712.44463575  -0.0000552882  0.000290  0.002123  0.001904  0.000043
 11  -1712.44463734  -0.0000015884  0.000312  0.000604  0.000626  0.000017
 12  -1712.44464376  -0.0000064200  0.000022  0.000066  0.000284  0.000004
 13  -1712.44464374   0.0000000186  0.000028  0.000049  0.000187  0.000002
 14  -1712.44464386  -0.0000001225  0.000004  0.000015  0.000050  0.000001
 15  -1712.44464388  -0.0000000145  0.000003  0.000009  0.000019  0.000000
                  ***Gradient check signals convergence***
              ***Rediagonalizing the Fockian in SOSCF/NRSCF***

               *****************************************************
               *                     SUCCESS                       *
               *           SCF CONVERGED AFTER  16 CYCLES          *
               *****************************************************

Old exchange energy                            =    -68.483000668 Eh
New exchange energy                            =    -68.483123216 Eh
Exchange energy change after final integration =     -0.000122548 Eh
Total energy after final integration           =  -1712.444766414 Eh
Final COS-X integration done in                =     4.735 sec

----------------
TOTAL SCF ENERGY
----------------

Total Energy       :        -1712.44476641 Eh          -46597.99109 eV

Components:
Nuclear Repulsion  :         2206.76789467 Eh           60049.20726 eV
Electronic Energy  :        -3919.21266108 Eh         -106647.19835 eV
One Electron Energy:        -6834.58978257 Eh         -185978.64296 eV
Two Electron Energy:         2915.37712149 Eh           79331.44461 eV
Max COSX asymmetry :            0.00001429 Eh               0.00039 eV

Virial components:
Potential Energy   :        -3270.71846122 Eh          -89000.77404 eV
Kinetic Energy     :         1558.27369481 Eh           42402.78295 eV
Virial Ratio       :            2.09893709


DFT components:
N(Alpha)           :       87.999839428811 electrons
N(Beta)            :       87.999839428811 electrons
N(Total)           :      175.999678857622 electrons
E(X)               :      -91.256276690419 Eh       
E(C)               :       -8.150736020883 Eh       
E(XC)              :      -99.407012711303 Eh       
DFET-embed. en.    :        0.000000000000 Eh       

---------------
SCF CONVERGENCE
---------------

  Last Energy change         ...    1.3709e-08  Tolerance :   1.0000e-08
  Last MAX-Density change    ...    3.1086e-15  Tolerance :   1.0000e-07
  Last RMS-Density change    ...    4.7097e-17  Tolerance :   5.0000e-09
  Last Orbital Gradient      ...    5.3578e-07  Tolerance :   1.0000e-05
  Last Orbital Rotation      ...    3.0060e-06  Tolerance :   1.0000e-05

             **** THE GBW FILE WAS UPDATED (FREQ_Sb_5_M016973.gbw) ****
             **** DENSITY FREQ_Sb_5_M016973.scfp WAS UPDATED ****
             **** ENERGY FILE WAS UPDATED (FREQ_Sb_5_M016973.en.tmp) ****
             **** THE GBW FILE WAS UPDATED (FREQ_Sb_5_M016973.gbw) ****
             **** DENSITY FREQ_Sb_5_M016973.scfp WAS UPDATED ****
----------------
ORBITAL ENERGIES
----------------

  NO   OCC          E(Eh)            E(eV) 
   0   2.0000     -89.594312     -2437.9852 
   1   2.0000     -89.575590     -2437.4757 
   2   2.0000     -19.493086      -530.4338 
   3   2.0000     -19.489922      -530.3477 
   4   2.0000     -14.648170      -398.5970 
   5   2.0000     -10.485851      -285.3345 
   6   2.0000     -10.478604      -285.1373 
   7   2.0000     -10.470151      -284.9073 
   8   2.0000     -10.466477      -284.8073 
   9   2.0000     -10.460374      -284.6412 
  10   2.0000     -10.454313      -284.4763 
  11   2.0000     -10.433879      -283.9203 
  12   2.0000     -10.429522      -283.8017 
  13   2.0000     -10.425466      -283.6913 
  14   2.0000     -10.423201      -283.6297 
  15   2.0000     -10.418348      -283.4977 
  16   2.0000     -10.416196      -283.4391 
  17   2.0000      -8.231337      -223.9861 
  18   2.0000      -8.213332      -223.4961 
  19   2.0000      -6.121732      -166.5808 
  20   2.0000      -6.119183      -166.5114 
  21   2.0000      -6.114508      -166.3842 
  22   2.0000      -6.103931      -166.0964 
  23   2.0000      -6.101577      -166.0324 
  24   2.0000      -6.095879      -165.8773 
  25   2.0000      -6.011415      -163.5789 
  26   2.0000      -4.197687      -114.2249 
  27   2.0000      -4.197248      -114.2129 
  28   2.0000      -4.196873      -114.2027 
  29   2.0000      -1.474671       -40.1278 
  30   2.0000      -1.472081       -40.0574 
  31   2.0000      -1.468778       -39.9675 
  32   2.0000      -1.466537       -39.9065 
  33   2.0000      -1.466205       -39.8975 
  34   2.0000      -1.117252       -30.4020 
  35   2.0000      -1.077701       -29.3257 
  36   2.0000      -1.005273       -27.3549 
  37   2.0000      -0.901337       -24.5266 
  38   2.0000      -0.888479       -24.1768 
  39   2.0000      -0.858454       -23.3597 
  40   2.0000      -0.852080       -23.1863 
  41   2.0000      -0.816608       -22.2210 
  42   2.0000      -0.800514       -21.7831 
  43   2.0000      -0.783647       -21.3241 
  44   2.0000      -0.762537       -20.7497 
  45   2.0000      -0.722961       -19.6728 
  46   2.0000      -0.713822       -19.4241 
  47   2.0000      -0.704339       -19.1660 
  48   2.0000      -0.672028       -18.2868 
  49   2.0000      -0.641481       -17.4556 
  50   2.0000      -0.614906       -16.7324 
  51   2.0000      -0.573068       -15.5940 
  52   2.0000      -0.557020       -15.1573 
  53   2.0000      -0.540371       -14.7042 
  54   2.0000      -0.535598       -14.5744 
  55   2.0000      -0.529781       -14.4161 
  56   2.0000      -0.525162       -14.2904 
  57   2.0000      -0.510821       -13.9001 
  58   2.0000      -0.500282       -13.6134 
  59   2.0000      -0.495727       -13.4894 
  60   2.0000      -0.486069       -13.2266 
  61   2.0000      -0.482078       -13.1180 
  62   2.0000      -0.475657       -12.9433 
  63   2.0000      -0.469759       -12.7828 
  64   2.0000      -0.465013       -12.6537 
  65   2.0000      -0.456712       -12.4278 
  66   2.0000      -0.446014       -12.1366 
  67   2.0000      -0.437667       -11.9095 
  68   2.0000      -0.433089       -11.7849 
  69   2.0000      -0.429620       -11.6905 
  70   2.0000      -0.428782       -11.6678 
  71   2.0000      -0.421447       -11.4681 
  72   2.0000      -0.417794       -11.3688 
  73   2.0000      -0.411333       -11.1929 
  74   2.0000      -0.410609       -11.1732 
  75   2.0000      -0.404145       -10.9973 
  76   2.0000      -0.396470       -10.7885 
  77   2.0000      -0.393500       -10.7077 
  78   2.0000      -0.386557       -10.5188 
  79   2.0000      -0.382300       -10.4029 
  80   2.0000      -0.369764       -10.0618 
  81   2.0000      -0.343205        -9.3391 
  82   2.0000      -0.329974        -8.9790 
  83   2.0000      -0.313175        -8.5219 
  84   2.0000      -0.290521        -7.9055 
  85   2.0000      -0.273695        -7.4476 
  86   2.0000      -0.268855        -7.3159 
  87   2.0000      -0.240420        -6.5422 
  88   0.0000      -0.057591        -1.5671 
  89   0.0000       0.029050         0.7905 
  90   0.0000       0.043774         1.1911 
  91   0.0000       0.066320         1.8047 
  92   0.0000       0.070349         1.9143 
  93   0.0000       0.091696         2.4952 
  94   0.0000       0.101946         2.7741 
  95   0.0000       0.118048         3.2123 
  96   0.0000       0.142079         3.8662 
  97   0.0000       0.146179         3.9777 
  98   0.0000       0.153756         4.1839 
  99   0.0000       0.156008         4.2452 
 100   0.0000       0.163244         4.4421 
 101   0.0000       0.174008         4.7350 
 102   0.0000       0.178617         4.8604 
 103   0.0000       0.186675         5.0797 
 104   0.0000       0.187278         5.0961 
 105   0.0000       0.192431         5.2363 
 106   0.0000       0.197327         5.3695 
 107   0.0000       0.200695         5.4612 
 108   0.0000       0.207503         5.6464 
 109   0.0000       0.210017         5.7149 
 110   0.0000       0.215552         5.8655 
 111   0.0000       0.218517         5.9461 
 112   0.0000       0.221967         6.0400 
 113   0.0000       0.227269         6.1843 
 114   0.0000       0.230022         6.2592 
 115   0.0000       0.232596         6.3293 
 116   0.0000       0.236330         6.4309 
 117   0.0000       0.240945         6.5564 
 118   0.0000       0.248881         6.7724 
 119   0.0000       0.255266         6.9462 
 120   0.0000       0.260477         7.0880 
 121   0.0000       0.266111         7.2412 
 122   0.0000       0.276033         7.5112 
 123   0.0000       0.284614         7.7447 
 124   0.0000       0.290225         7.8974 
 125   0.0000       0.301322         8.1994 
 126   0.0000       0.303007         8.2452 
 127   0.0000       0.310784         8.4569 
 128   0.0000       0.318232         8.6595 
 129   0.0000       0.333939         9.0869 
 130   0.0000       0.348098         9.4722 
 131   0.0000       0.365496         9.9457 
 132   0.0000       0.376935        10.2569 
 133   0.0000       0.384640        10.4666 
 134   0.0000       0.404799        11.0151 
 135   0.0000       0.423175        11.5152 
 136   0.0000       0.436880        11.8881 
 137   0.0000       0.438623        11.9355 
 138   0.0000       0.449292        12.2259 
 139   0.0000       0.474049        12.8995 
 140   0.0000       0.480311        13.0699 
 141   0.0000       0.485707        13.2168 
 142   0.0000       0.498808        13.5732 
 143   0.0000       0.505344        13.7511 
 144   0.0000       0.514657        14.0045 
 145   0.0000       0.528928        14.3929 
 146   0.0000       0.535381        14.5685 
 147   0.0000       0.541880        14.7453 
 148   0.0000       0.558008        15.1842 
 149   0.0000       0.559452        15.2235 
 150   0.0000       0.569435        15.4951 
 151   0.0000       0.574309        15.6277 
 152   0.0000       0.583334        15.8733 
 153   0.0000       0.591809        16.1040 
 154   0.0000       0.602733        16.4012 
 155   0.0000       0.611012        16.6265 
 156   0.0000       0.616747        16.7825 
 157   0.0000       0.627370        17.0716 
 158   0.0000       0.632902        17.2221 
 159   0.0000       0.639179        17.3929 
 160   0.0000       0.644110        17.5271 
 161   0.0000       0.651148        17.7186 
 162   0.0000       0.659183        17.9373 
 163   0.0000       0.669132        18.2080 
 164   0.0000       0.671461        18.2714 
 165   0.0000       0.685893        18.6641 
 166   0.0000       0.692578        18.8460 
 167   0.0000       0.702694        19.1213 
 168   0.0000       0.711206        19.3529 
 169   0.0000       0.713545        19.4165 
 170   0.0000       0.727614        19.7994 
 171   0.0000       0.739795        20.1308 
 172   0.0000       0.748562        20.3694 
 173   0.0000       0.755950        20.5705 
 174   0.0000       0.767380        20.8815 
 175   0.0000       0.783259        21.3136 
 176   0.0000       0.790379        21.5073 
 177   0.0000       0.794981        21.6325 
 178   0.0000       0.810758        22.0618 
 179   0.0000       0.814870        22.1737 
 180   0.0000       0.823098        22.3976 
 181   0.0000       0.832114        22.6430 
 182   0.0000       0.845611        23.0103 
 183   0.0000       0.850051        23.1311 
 184   0.0000       0.878529        23.9060 
 185   0.0000       0.888167        24.1683 
 186   0.0000       0.912200        24.8222 
 187   0.0000       0.929545        25.2942 
 188   0.0000       0.940780        25.5999 
 189   0.0000       0.953695        25.9513 
 190   0.0000       0.969134        26.3715 
 191   0.0000       0.970388        26.4056 
 192   0.0000       0.975768        26.5520 
 193   0.0000       0.990862        26.9627 
 194   0.0000       0.994584        27.0640 
 195   0.0000       1.005403        27.3584 
 196   0.0000       1.009434        27.4681 
 197   0.0000       1.018313        27.7097 
 198   0.0000       1.033152        28.1135 
 199   0.0000       1.035064        28.1655 
 200   0.0000       1.042246        28.3609 
 201   0.0000       1.045789        28.4574 
 202   0.0000       1.047578        28.5060 
 203   0.0000       1.052113        28.6294 
 204   0.0000       1.054313        28.6893 
 205   0.0000       1.060814        28.8662 
 206   0.0000       1.063041        28.9268 
 207   0.0000       1.069577        29.1047 
 208   0.0000       1.074920        29.2500 
 209   0.0000       1.077563        29.3220 
 210   0.0000       1.080858        29.4116 
 211   0.0000       1.089532        29.6477 
 212   0.0000       1.097954        29.8768 
 213   0.0000       1.101896        29.9841 
 214   0.0000       1.109064        30.1792 
 215   0.0000       1.124599        30.6019 
 216   0.0000       1.126082        30.6422 
 217   0.0000       1.144488        31.1431 
 218   0.0000       1.146088        31.1866 
 219   0.0000       1.157873        31.5073 
 220   0.0000       1.159793        31.5596 
 221   0.0000       1.185644        32.2630 
 222   0.0000       1.190034        32.3825 
 223   0.0000       1.203539        32.7500 
 224   0.0000       1.209006        32.8987 
 225   0.0000       1.236505        33.6470 
 226   0.0000       1.250918        34.0392 
 227   0.0000       1.252025        34.0693 
 228   0.0000       1.278419        34.7875 
 229   0.0000       1.282273        34.8924 
 230   0.0000       1.298258        35.3274 
 231   0.0000       1.308802        35.6143 
 232   0.0000       1.322708        35.9927 
 233   0.0000       1.340753        36.4837 
 234   0.0000       1.364221        37.1224 
 235   0.0000       1.395703        37.9790 
 236   0.0000       1.413903        38.4742 
 237   0.0000       1.427092        38.8332 
 238   0.0000       1.439819        39.1795 
 239   0.0000       1.450123        39.4598 
 240   0.0000       1.487638        40.4807 
 241   0.0000       1.499955        40.8158 
 242   0.0000       1.513988        41.1977 
 243   0.0000       1.528423        41.5905 
 244   0.0000       1.553835        42.2820 
 245   0.0000       1.583906        43.1003 
 246   0.0000       1.609311        43.7916 
 247   0.0000       1.650122        44.9021 
 248   0.0000       1.670695        45.4619 
 249   0.0000       1.710599        46.5478 
 250   0.0000       1.768207        48.1154 
 251   0.0000       1.784372        48.5552 
 252   0.0000       1.800118        48.9837 
 253   0.0000       1.805763        49.1373 
 254   0.0000       1.818679        49.4888 
 255   0.0000       1.827935        49.7406 
 256   0.0000       1.835956        49.9589 
 257   0.0000       1.847381        50.2698 
 258   0.0000       1.858230        50.5650 
 259   0.0000       1.881547        51.1995 
 260   0.0000       1.887807        51.3698 
 261   0.0000       1.912264        52.0354 
 262   0.0000       1.917054        52.1657 
 263   0.0000       1.940498        52.8036 
 264   0.0000       1.951240        53.0959 
 265   0.0000       1.961884        53.3856 
 266   0.0000       1.972563        53.6762 
 267   0.0000       1.982785        53.9543 
 268   0.0000       1.994691        54.2783 
 269   0.0000       2.006406        54.5971 
 270   0.0000       2.012287        54.7571 
 271   0.0000       2.027445        55.1696 
 272   0.0000       2.042127        55.5691 
 273   0.0000       2.046325        55.6833 
 274   0.0000       2.066390        56.2293 
 275   0.0000       2.077333        56.5271 
 276   0.0000       2.082111        56.6571 
 277   0.0000       2.103255        57.2325 
 278   0.0000       2.137639        58.1681 
 279   0.0000       2.144751        58.3617 
 280   0.0000       2.157478        58.7080 
 281   0.0000       2.165759        58.9333 
 282   0.0000       2.208262        60.0899 
 283   0.0000       2.242637        61.0252 
 284   0.0000       2.254579        61.3502 
 285   0.0000       2.259928        61.4958 
 286   0.0000       2.279414        62.0260 
 287   0.0000       2.290160        62.3184 
 288   0.0000       2.303492        62.6812 
 289   0.0000       2.315527        63.0087 
 290   0.0000       2.322265        63.1920 
 291   0.0000       2.330861        63.4260 
 292   0.0000       2.347088        63.8675 
 293   0.0000       2.371389        64.5288 
 294   0.0000       2.384175        64.8767 
 295   0.0000       2.390017        65.0357 
 296   0.0000       2.405995        65.4705 
 297   0.0000       2.411531        65.6211 
 298   0.0000       2.423190        65.9383 
 299   0.0000       2.438282        66.3490 
 300   0.0000       2.440766        66.4166 
 301   0.0000       2.453818        66.7718 
 302   0.0000       2.465984        67.1028 
 303   0.0000       2.506064        68.1935 
 304   0.0000       2.545710        69.2723 
 305   0.0000       2.575964        70.0955 
 306   0.0000       2.590665        70.4956 
 307   0.0000       2.597341        70.6772 
 308   0.0000       2.662436        72.4486 
 309   0.0000       2.674525        72.7775 
 310   0.0000       2.683781        73.0294 
 311   0.0000       2.698132        73.4199 
 312   0.0000       2.706926        73.6592 
 313   0.0000       2.726136        74.1819 
 314   0.0000       2.763437        75.1969 
 315   0.0000       2.769563        75.3637 
 316   0.0000       2.841238        77.3140 
 317   0.0000       3.007578        81.8404 
 318   0.0000       3.078059        83.7582 
 319   0.0000       3.243187        88.2516 
 320   0.0000      13.426359       365.3498 
 321   0.0000      13.479326       366.7911 
 322   0.0000      13.644493       371.2855 
 323   0.0000      13.694885       372.6568 
 324   0.0000      13.714544       373.1917 
 325   0.0000      13.830052       376.3348 
 326   0.0000      13.926192       378.9509 
 327   0.0000      13.936878       379.2417 
 328   0.0000      13.964708       379.9990 
 329   0.0000      14.041142       382.0789 
 330   0.0000      14.061321       382.6280 
 331   0.0000      14.349811       390.4782 
 332   0.0000      19.094216       519.5800 
 333   0.0000      19.258873       524.0606 
 334   0.0000      19.558938       532.2257 
 335   0.0000      19.841930       539.9264 
 336   0.0000      25.502057       693.9463 
 337   0.0000      25.778753       701.4755 
 338   0.0000      54.925080      1494.5874 

                    ********************************
                    * MULLIKEN POPULATION ANALYSIS *
                    ********************************

-----------------------
MULLIKEN ATOMIC CHARGES
-----------------------
   0 Sb:    1.341452
   1 C :   -0.632420
   2 C :   -0.303515
   3 N :   -0.586937
   4 C :   -0.316344
   5 C :   -0.656915
   6 O :   -0.755675
   7 C :   -0.689298
   8 C :    0.017927
   9 C :   -0.700766
  10 C :    0.292074
  11 C :   -0.747573
  12 O :   -0.645405
  13 C :   -0.763081
  14 S :   -0.220502
  15 C :   -0.392453
  16 C :   -0.337730
  17 S :   -0.182658
  18 H :    0.214349
  19 H :    0.245290
  20 H :    0.209538
  21 H :    0.237427
  22 H :    0.226547
  23 H :    0.269146
  24 H :    0.219921
  25 H :    0.218835
  26 H :    0.227323
  27 H :    0.214339
  28 H :    0.446228
  29 H :    0.219566
  30 H :    0.224516
  31 H :    0.219243
  32 H :    0.215318
  33 H :    0.226076
  34 H :    0.249682
  35 H :    0.218748
  36 H :    0.236063
  37 H :    0.236372
  38 H :    0.264239
  39 H :    0.279007
  40 H :    0.245270
  41 H :    0.236024
  42 H :    0.229643
  43 H :    0.251105
Sum of atomic charges:   -0.0000000

--------------------------------
MULLIKEN REDUCED ORBITAL CHARGES
--------------------------------
  0 Sbs       :     3.256716  s :     3.256716
      pz      :     2.636537  p :     7.894105
      px      :     2.604468
      py      :     2.653099
      dz2     :     2.121350  d :    10.507727
      dxz     :     2.090050
      dyz     :     2.080539
      dx2y2   :     2.048978
      dxy     :     2.166810
  1 C s       :     3.377969  s :     3.377969
      pz      :     1.030181  p :     3.218222
      px      :     1.065137
      py      :     1.122904
      dz2     :     0.007383  d :     0.036228
      dxz     :     0.005582
      dyz     :     0.009513
      dx2y2   :     0.011856
      dxy     :     0.001895
  2 C s       :     3.289111  s :     3.289111
      pz      :     1.035997  p :     2.954308
      px      :     0.770622
      py      :     1.147689
      dz2     :     0.009552  d :     0.060096
      dxz     :     0.014471
      dyz     :     0.010656
      dx2y2   :     0.016902
      dxy     :     0.008515
  3 N s       :     3.563885  s :     3.563885
      pz      :     1.584510  p :     3.993726
      px      :     1.132051
      py      :     1.277165
      dz2     :     0.003620  d :     0.029325
      dxz     :     0.005675
      dyz     :     0.004503
      dx2y2   :     0.007495
      dxy     :     0.008031
  4 C s       :     3.290666  s :     3.290666
      pz      :     0.912456  p :     2.965108
      px      :     1.138190
      py      :     0.914462
      dz2     :     0.016148  d :     0.060570
      dxz     :     0.011209
      dyz     :     0.011299
      dx2y2   :     0.007817
      dxy     :     0.014097
  5 C s       :     3.381978  s :     3.381978
      pz      :     0.978062  p :     3.238628
      px      :     1.124718
      py      :     1.135848
      dz2     :     0.007860  d :     0.036309
      dxz     :     0.007945
      dyz     :     0.006708
      dx2y2   :     0.003927
      dxy     :     0.009869
  6 O s       :     3.852144  s :     3.852144
      pz      :     1.467307  p :     4.883096
      px      :     1.705906
      py      :     1.709883
      dz2     :     0.004888  d :     0.020435
      dxz     :     0.003382
      dyz     :     0.002912
      dx2y2   :     0.001587
      dxy     :     0.007666
  7 C s       :     3.398950  s :     3.398950
      pz      :     1.146454  p :     3.252474
      px      :     0.986522
      py      :     1.119498
      dz2     :     0.007189  d :     0.037873
      dxz     :     0.004895
      dyz     :     0.009251
      dx2y2   :     0.005957
      dxy     :     0.010583
  8 C s       :     3.167640  s :     3.167640
      pz      :     0.869350  p :     2.769962
      px      :     0.898000
      py      :     1.002612
      dz2     :     0.010598  d :     0.044471
      dxz     :     0.012041
      dyz     :     0.007683
      dx2y2   :     0.006287
      dxy     :     0.007861
  9 C s       :     3.404588  s :     3.404588
      pz      :     1.006002  p :     3.258652
      px      :     1.144525
      py      :     1.108126
      dz2     :     0.008469  d :     0.037526
      dxz     :     0.003747
      dyz     :     0.011437
      dx2y2   :     0.004200
      dxy     :     0.009672
 10 C s       :     3.084866  s :     3.084866
      pz      :     0.881194  p :     2.544925
      px      :     0.701870
      py      :     0.961861
      dz2     :     0.016625  d :     0.078136
      dxz     :     0.022131
      dyz     :     0.008609
      dx2y2   :     0.014467
      dxy     :     0.016305
 11 C s       :     3.400202  s :     3.400202
      pz      :     1.004946  p :     3.310622
      px      :     1.186404
      py      :     1.119271
      dz2     :     0.009122  d :     0.036750
      dxz     :     0.004335
      dyz     :     0.009412
      dx2y2   :     0.008357
      dxy     :     0.005523
 12 O s       :     3.817037  s :     3.817037
      pz      :     1.839574  p :     4.806863
      px      :     1.333268
      py      :     1.634020
      dz2     :     0.003099  d :     0.021506
      dxz     :     0.003369
      dyz     :     0.001743
      dx2y2   :     0.005052
      dxy     :     0.008242
 13 C s       :     3.436805  s :     3.436805
      pz      :     1.124992  p :     3.288222
      px      :     1.130206
      py      :     1.033024
      dz2     :     0.009524  d :     0.038054
      dxz     :     0.007321
      dyz     :     0.006139
      dx2y2   :     0.003499
      dxy     :     0.011572
 14 S s       :     5.876910  s :     5.876910
      pz      :     3.689240  p :    10.282953
      px      :     3.397911
      py      :     3.195802
      dz2     :     0.007807  d :     0.060638
      dxz     :     0.008642
      dyz     :     0.012552
      dx2y2   :     0.007530
      dxy     :     0.024108
 15 C s       :     3.312822  s :     3.312822
      pz      :     0.960754  p :     3.046351
      px      :     0.966611
      py      :     1.118986
      dz2     :     0.006207  d :     0.033279
      dxz     :     0.005109
      dyz     :     0.006533
      dx2y2   :     0.007649
      dxy     :     0.007782
 16 C s       :     3.276777  s :     3.276777
      pz      :     0.992742  p :     3.018553
      px      :     0.988724
      py      :     1.037087
      dz2     :     0.009386  d :     0.042399
      dxz     :     0.006435
      dyz     :     0.007768
      dx2y2   :     0.010012
      dxy     :     0.008799
 17 S s       :     5.878730  s :     5.878730
      pz      :     3.529944  p :    10.233227
      px      :     3.370919
      py      :     3.332363
      dz2     :     0.008204  d :     0.070701
      dxz     :     0.014923
      dyz     :     0.013411
      dx2y2   :     0.008420
      dxy     :     0.025744
 18 H s       :     0.785651  s :     0.785651
 19 H s       :     0.754710  s :     0.754710
 20 H s       :     0.790462  s :     0.790462
 21 H s       :     0.762573  s :     0.762573
 22 H s       :     0.773453  s :     0.773453
 23 H s       :     0.730854  s :     0.730854
 24 H s       :     0.780079  s :     0.780079
 25 H s       :     0.781165  s :     0.781165
 26 H s       :     0.772677  s :     0.772677
 27 H s       :     0.785661  s :     0.785661
 28 H s       :     0.553772  s :     0.553772
 29 H s       :     0.780434  s :     0.780434
 30 H s       :     0.775484  s :     0.775484
 31 H s       :     0.780757  s :     0.780757
 32 H s       :     0.784682  s :     0.784682
 33 H s       :     0.773924  s :     0.773924
 34 H s       :     0.750318  s :     0.750318
 35 H s       :     0.781252  s :     0.781252
 36 H s       :     0.763937  s :     0.763937
 37 H s       :     0.763628  s :     0.763628
 38 H s       :     0.735761  s :     0.735761
 39 H s       :     0.720993  s :     0.720993
 40 H s       :     0.754730  s :     0.754730
 41 H s       :     0.763976  s :     0.763976
 42 H s       :     0.770357  s :     0.770357
 43 H s       :     0.748895  s :     0.748895


                     *******************************
                     * LOEWDIN POPULATION ANALYSIS *
                     *******************************

----------------------
LOEWDIN ATOMIC CHARGES
----------------------
   0 Sb:    0.765566
   1 C :   -0.372833
   2 C :   -0.160963
   3 N :   -0.313284
   4 C :   -0.160026
   5 C :   -0.381429
   6 O :   -0.545279
   7 C :   -0.345074
   8 C :   -0.109741
   9 C :   -0.350462
  10 C :    0.000586
  11 C :   -0.370743
  12 O :   -0.353835
  13 C :   -0.464298
  14 S :    0.010057
  15 C :   -0.244385
  16 C :   -0.296819
  17 S :    0.074594
  18 H :    0.126834
  19 H :    0.139066
  20 H :    0.126100
  21 H :    0.120522
  22 H :    0.124770
  23 H :    0.138925
  24 H :    0.119241
  25 H :    0.129463
  26 H :    0.129898
  27 H :    0.122688
  28 H :    0.316468
  29 H :    0.126602
  30 H :    0.134085
  31 H :    0.130196
  32 H :    0.128076
  33 H :    0.134721
  34 H :    0.135254
  35 H :    0.130207
  36 H :    0.136036
  37 H :    0.135587
  38 H :    0.142936
  39 H :    0.145941
  40 H :    0.129964
  41 H :    0.138047
  42 H :    0.140430
  43 H :    0.136306

-------------------------------
LOEWDIN REDUCED ORBITAL CHARGES
-------------------------------
  0 Sbs       :     3.164619  s :     3.164619
      pz      :     2.707796  p :     8.207090
      px      :     2.746661
      py      :     2.752632
      dz2     :     2.219979  d :    10.862725
      dxz     :     2.147314
      dyz     :     2.129728
      dx2y2   :     2.073412
      dxy     :     2.292292
  1 C s       :     2.959636  s :     2.959636
      pz      :     1.105467  p :     3.344817
      px      :     1.103968
      py      :     1.135381
      dz2     :     0.014575  d :     0.068380
      dxz     :     0.012193
      dyz     :     0.017564
      dx2y2   :     0.020524
      dxy     :     0.003524
  2 C s       :     2.897233  s :     2.897233
      pz      :     1.096309  p :     3.139684
      px      :     0.917806
      py      :     1.125569
      dz2     :     0.019700  d :     0.124046
      dxz     :     0.033544
      dyz     :     0.018623
      dx2y2   :     0.034834
      dxy     :     0.017346
  3 N s       :     3.149968  s :     3.149968
      pz      :     1.555023  p :     4.091243
      px      :     1.197438
      py      :     1.338782
      dz2     :     0.008451  d :     0.072073
      dxz     :     0.013503
      dyz     :     0.009580
      dx2y2   :     0.019265
      dxy     :     0.021273
  4 C s       :     2.895740  s :     2.895740
      pz      :     1.036838  p :     3.138871
      px      :     1.109901
      py      :     0.992132
      dz2     :     0.036261  d :     0.125415
      dxz     :     0.021815
      dyz     :     0.024733
      dx2y2   :     0.015649
      dxy     :     0.026957
  5 C s       :     2.961509  s :     2.961509
      pz      :     1.083502  p :     3.351648
      px      :     1.130753
      py      :     1.137392
      dz2     :     0.017108  d :     0.068272
      dxz     :     0.015642
      dyz     :     0.013016
      dx2y2   :     0.006179
      dxy     :     0.016326
  6 O s       :     3.600171  s :     3.600171
      pz      :     1.503574  p :     4.914627
      px      :     1.704925
      py      :     1.706128
      dz2     :     0.010329  d :     0.030481
      dxz     :     0.004991
      dyz     :     0.004219
      dx2y2   :     0.001615
      dxy     :     0.009326
  7 C s       :     2.940756  s :     2.940756
      pz      :     1.131485  p :     3.332713
      px      :     1.073949
      py      :     1.127279
      dz2     :     0.012978  d :     0.071605
      dxz     :     0.010160
      dyz     :     0.015325
      dx2y2   :     0.012491
      dxy     :     0.020651
  8 C s       :     2.863020  s :     2.863020
      pz      :     1.059587  p :     3.140862
      px      :     1.061185
      py      :     1.020090
      dz2     :     0.026992  d :     0.105859
      dxz     :     0.030449
      dyz     :     0.016466
      dx2y2   :     0.015432
      dxy     :     0.016522
  9 C s       :     2.939260  s :     2.939260
      pz      :     1.082360  p :     3.340345
      px      :     1.133793
      py      :     1.124192
      dz2     :     0.017314  d :     0.070857
      dxz     :     0.008307
      dyz     :     0.021914
      dx2y2   :     0.006957
      dxy     :     0.016366
 10 C s       :     2.837594  s :     2.837594
      pz      :     1.064031  p :     2.978229
      px      :     0.911141
      py      :     1.003058
      dz2     :     0.038949  d :     0.183590
      dxz     :     0.054955
      dyz     :     0.018201
      dx2y2   :     0.035182
      dxy     :     0.036303
 11 C s       :     2.948116  s :     2.948116
      pz      :     1.085074  p :     3.353603
      px      :     1.143509
      py      :     1.125020
      dz2     :     0.018546  d :     0.069025
      dxz     :     0.008811
      dyz     :     0.018518
      dx2y2   :     0.014143
      dxy     :     0.009006
 12 O s       :     3.490606  s :     3.490606
      pz      :     1.812951  p :     4.814884
      px      :     1.357146
      py      :     1.644788
      dz2     :     0.006074  d :     0.048345
      dxz     :     0.009222
      dyz     :     0.002424
      dx2y2   :     0.010730
      dxy     :     0.019896
 13 C s       :     3.012794  s :     3.012794
      pz      :     1.147754  p :     3.383977
      px      :     1.149944
      py      :     1.086280
      dz2     :     0.016302  d :     0.067527
      dxz     :     0.012818
      dyz     :     0.011255
      dx2y2   :     0.006294
      dxy     :     0.020857
 14 S s       :     5.644002  s :     5.644002
      pz      :     3.676527  p :    10.270580
      px      :     3.409237
      py      :     3.184816
      dz2     :     0.009728  d :     0.075361
      dxz     :     0.009950
      dyz     :     0.016162
      dx2y2   :     0.009052
      dxy     :     0.030469
 15 C s       :     2.975670  s :     2.975670
      pz      :     1.038915  p :     3.200403
      px      :     1.050104
      py      :     1.111383
      dz2     :     0.011100  d :     0.068312
      dxz     :     0.012420
      dyz     :     0.013809
      dx2y2   :     0.014644
      dxy     :     0.016340
 16 C s       :     2.962699  s :     2.962699
      pz      :     1.078712  p :     3.242139
      px      :     1.087035
      py      :     1.076393
      dz2     :     0.018250  d :     0.091981
      dxz     :     0.015798
      dyz     :     0.017208
      dx2y2   :     0.020394
      dxy     :     0.020331
 17 S s       :     5.622371  s :     5.622371
      pz      :     3.496372  p :    10.214269
      px      :     3.379671
      py      :     3.338226
      dz2     :     0.009624  d :     0.088766
      dxz     :     0.018021
      dyz     :     0.018620
      dx2y2   :     0.009705
      dxy     :     0.032796
 18 H s       :     0.873166  s :     0.873166
 19 H s       :     0.860934  s :     0.860934
 20 H s       :     0.873900  s :     0.873900
 21 H s       :     0.879478  s :     0.879478
 22 H s       :     0.875230  s :     0.875230
 23 H s       :     0.861075  s :     0.861075
 24 H s       :     0.880759  s :     0.880759
 25 H s       :     0.870537  s :     0.870537
 26 H s       :     0.870102  s :     0.870102
 27 H s       :     0.877312  s :     0.877312
 28 H s       :     0.683532  s :     0.683532
 29 H s       :     0.873398  s :     0.873398
 30 H s       :     0.865915  s :     0.865915
 31 H s       :     0.869804  s :     0.869804
 32 H s       :     0.871924  s :     0.871924
 33 H s       :     0.865279  s :     0.865279
 34 H s       :     0.864746  s :     0.864746
 35 H s       :     0.869793  s :     0.869793
[...]
 21:    150.50   0.000651    3.29  0.001349  ( 0.009485 -0.029752  0.019348)
 22:    157.35   0.000162    0.82  0.000321  ( 0.012987  0.011660 -0.004061)
 23:    174.28   0.000506    2.56  0.000906  ( 0.008961 -0.023647 -0.016334)
 24:    182.82   0.000981    4.96  0.001675  (-0.019694  0.005887 -0.035387)
 25:    194.21   0.001233    6.23  0.001981  (-0.013940 -0.033979 -0.025145)
 26:    198.45   0.001277    6.45  0.002008  ( 0.035057  0.005389 -0.027393)
 27:    219.40   0.000456    2.31  0.000649  (-0.020351 -0.014394 -0.005265)
 28:    224.80   0.000510    2.58  0.000708  ( 0.012079  0.019837 -0.012965)
 29:    234.31   0.000116    0.59  0.000155  (-0.008782  0.007024  0.005314)
 30:    255.42   0.002428   12.27  0.002967  (-0.040983  0.030286  0.019233)
 31:    264.72   0.002321   11.73  0.002735  (-0.041380  0.026853  0.017379)
 32:    298.26   0.003665   18.52  0.003835  (-0.026129 -0.030929 -0.046856)
 33:    308.39   0.003160   15.97  0.003198  ( 0.020652 -0.030945 -0.042586)
 34:    321.17   0.001417    7.16  0.001377  ( 0.018009  0.032433  0.000830)
 35:    337.44   0.002113   10.68  0.001955  ( 0.028694  0.021119  0.026175)
 36:    359.92   0.004425   22.36  0.003837  (-0.042462  0.042981  0.013650)
 37:    375.31   0.007523   38.02  0.006256  (-0.054232  0.056753 -0.009669)
 38:    391.13   0.001710    8.64  0.001364  ( 0.033635  0.013458 -0.007180)
 39:    415.91   0.000364    1.84  0.000273  (-0.009752 -0.011310  0.007080)
 40:    427.78   0.001007    5.09  0.000735  (-0.017461  0.008660 -0.018841)
 41:    453.87   0.018609   94.04  0.012795  (-0.096412 -0.058724 -0.007153)
 42:    456.28   0.007057   35.66  0.004826  ( 0.009786  0.067398  0.013719)
 43:    480.51   0.003799   19.20  0.002467  (-0.041847 -0.005022  0.026287)
 44:    495.96   0.004384   22.16  0.002759  ( 0.044200  0.017362  0.022440)
 45:    587.06   0.003775   19.07  0.002006  (-0.032513  0.006020 -0.030217)
 46:    591.84   0.003599   18.19  0.001897  ( 0.024798  0.035563 -0.004216)
 47:    631.90   0.001343    6.79  0.000663  (-0.017169 -0.012506 -0.014561)
 48:    633.70   0.012430   62.82  0.006121  (-0.002539 -0.000925 -0.078191)
 49:    643.59   0.003389   17.13  0.001643  ( 0.020932 -0.031881 -0.013733)
 50:    744.24   0.000527    2.66  0.000221  ( 0.009022  0.008688 -0.007995)
 51:    745.15   0.000479    2.42  0.000201  ( 0.001177 -0.010564 -0.009358)
 52:    759.55   0.005801   29.32  0.002383  (-0.048459  0.002287  0.005466)
 53:    804.31   0.002516   12.72  0.000976  (-0.015274 -0.025360  0.009988)
 54:    811.76   0.002490   12.58  0.000957  (-0.023743 -0.017680  0.008987)
 55:    928.12   0.003366   17.01  0.001132  ( 0.018252  0.022733 -0.016785)
 56:    960.05   0.000402    2.03  0.000131  (-0.010941 -0.000213  0.003290)
 57:    982.21   0.004704   23.77  0.001494  (-0.038092  0.004289 -0.005002)
 58:    993.22   0.006239   31.53  0.001960  ( 0.022057  0.002994  0.038271)
 59:    998.65   0.000990    5.00  0.000309  (-0.017573 -0.000572 -0.000382)
 60:   1010.62   0.030239  152.82  0.009337  (-0.056679  0.020540 -0.075518)
 61:   1016.54   0.000879    4.44  0.000270  (-0.014006 -0.007916 -0.003338)
 62:   1023.03   0.000577    2.91  0.000176  ( 0.009948  0.008167  0.003199)
 63:   1024.45   0.000395    2.00  0.000120  ( 0.010022  0.004194 -0.001511)
 64:   1028.88   0.013430   67.87  0.004073  (-0.044904  0.028073 -0.035621)
 65:   1063.68   0.004219   21.32  0.001238  (-0.033585 -0.008667  0.005905)
 66:   1070.05   0.008334   42.11  0.002430  (-0.031032 -0.030598  0.023046)
 67:   1078.52   0.001031    5.21  0.000298  (-0.003609  0.009754  0.013784)
 68:   1101.67   0.000143    0.72  0.000041  (-0.002234 -0.004725 -0.003637)
 69:   1129.29   0.002749   13.89  0.000760  ( 0.023539  0.007603  0.012159)
 70:   1132.96   0.000725    3.67  0.000200  ( 0.011458 -0.000814  0.008238)
 71:   1140.89   0.002333   11.79  0.000638  (-0.024946  0.002868  0.002735)
 72:   1141.44   0.002140   10.81  0.000585  ( 0.011583 -0.014909  0.015119)
 73:   1205.00   0.002422   12.24  0.000627  ( 0.004715 -0.008032  0.023249)
 74:   1247.46   0.013381   67.62  0.003347  ( 0.056280 -0.010210  0.008701)
 75:   1250.88   0.023990  121.23  0.005985  (-0.063202  0.035453 -0.027081)
 76:   1259.34   0.013299   67.21  0.003296  (-0.054313 -0.011958  0.014237)
 77:   1332.34   0.014720   74.39  0.003448  ( 0.057427 -0.005115 -0.011123)
 78:   1346.61   0.001988   10.05  0.000461  ( 0.005466  0.019046  0.008249)
 79:   1357.52   0.002035   10.28  0.000468  (-0.010711  0.017450 -0.006973)
 80:   1391.95   0.001501    7.59  0.000337  ( 0.014359 -0.009598  0.006189)
 81:   1416.37   0.001014    5.13  0.000223  (-0.009925  0.010267 -0.004420)
 82:   1420.80   0.003574   18.06  0.000785  (-0.021813  0.012639 -0.012223)
 83:   1437.49   0.004090   20.67  0.000888  ( 0.018119  0.022388 -0.007638)
 84:   1461.99   0.001616    8.17  0.000345  (-0.003956 -0.009122  0.015688)
 85:   1464.39   0.000786    3.97  0.000168  ( 0.007211  0.009149  0.005643)
 86:   1466.88   0.004975   25.14  0.001058  ( 0.008312  0.015166 -0.027555)
 87:   1467.99   0.000719    3.63  0.000153  ( 0.008803 -0.007296 -0.004696)
 88:   1471.25   0.007643   38.62  0.001621  (-0.026078 -0.010789 -0.028716)
 89:   1482.93   0.002859   14.45  0.000602  (-0.021581 -0.008256  0.008225)
 90:   1525.29   0.000251    1.27  0.000051  (-0.006572 -0.001277 -0.002538)
 91:   1527.29   0.001416    7.15  0.000289  (-0.003219 -0.011687 -0.011928)
 92:   1530.06   0.000362    1.83  0.000074  ( 0.007334  0.004477  0.000038)
 93:   1538.64   0.000008    0.04  0.000002  ( 0.000554 -0.001179  0.000137)
 94:   1539.47   0.002826   14.28  0.000573  ( 0.016707 -0.011587  0.012626)
 95:   1540.85   0.001967    9.94  0.000398  ( 0.017152 -0.009941 -0.002298)
 96:   1542.94   0.000281    1.42  0.000057  (-0.004572  0.001493 -0.005812)
 97:   1547.54   0.000616    3.11  0.000124  ( 0.010238  0.002581 -0.003573)
 98:   1547.88   0.003051   15.42  0.000615  (-0.008080 -0.022425  0.006849)
 99:   1549.48   0.000392    1.98  0.000079  (-0.003369 -0.002462  0.007843)
100:   1554.10   0.004164   21.04  0.000836  (-0.001914  0.028333  0.005455)
101:   1556.98   0.003245   16.40  0.000650  (-0.011783  0.007913  0.021191)
102:   1558.70   0.001475    7.46  0.000295  (-0.012258  0.007599  0.009348)
103:   1572.98   0.001950    9.85  0.000387  (-0.009494 -0.012394  0.011959)
104:   1722.13   0.001166    5.89  0.000211  ( 0.006822 -0.006172 -0.011254)
105:   1793.44   0.002615   13.22  0.000455  ( 0.010593  0.005783  0.017589)
106:   3095.79   0.005648   28.54  0.000569  (-0.004064 -0.021881 -0.008606)
107:   3096.48   0.004604   23.27  0.000464  ( 0.021036  0.002420  0.003949)
108:   3099.94   0.007739   39.11  0.000779  ( 0.010902 -0.008313  0.024312)
109:   3102.65   0.004608   23.29  0.000463  ( 0.018778 -0.003814  0.009814)
110:   3106.90   0.003308   16.72  0.000332  ( 0.012876  0.006664 -0.011048)
111:   3110.54   0.003249   16.42  0.000326  (-0.001099 -0.000738  0.018006)
112:   3118.57   0.004021   20.32  0.000402  (-0.016484 -0.007978 -0.008183)
113:   3134.21   0.004272   21.59  0.000425  (-0.004944 -0.019305  0.005315)
114:   3140.98   0.002990   15.11  0.000297  (-0.000943 -0.016063  0.006173)
115:   3153.69   0.001456    7.36  0.000144  (-0.005781  0.009729  0.004000)
116:   3157.82   0.007842   39.63  0.000775  (-0.015813  0.022640  0.003508)
117:   3159.19   0.001535    7.76  0.000152  (-0.001546 -0.008872 -0.008401)
118:   3188.32   0.002505   12.66  0.000245  ( 0.015418 -0.000004 -0.002735)
119:   3197.16   0.005326   26.91  0.000520  (-0.002270 -0.021199  0.008077)
120:   3201.56   0.004189   21.17  0.000408  (-0.017812  0.006941  0.006546)
121:   3212.76   0.003170   16.02  0.000308  ( 0.006244  0.015800 -0.004393)
122:   3219.13   0.002199   11.11  0.000213  ( 0.012751 -0.007110 -0.000001)
123:   3224.51   0.000654    3.30  0.000063  (-0.006668 -0.002241 -0.003715)
124:   3226.58   0.002254   11.39  0.000218  (-0.003810  0.005982 -0.012950)
125:   3235.19   0.000244    1.23  0.000024  (-0.000790 -0.004398  0.001883)
126:   3246.73   0.004953   25.03  0.000476  (-0.018009 -0.003631  0.011770)
127:   3251.45   0.001178    5.95  0.000113  ( 0.001983 -0.007526 -0.007242)
128:   3251.93   0.000459    2.32  0.000044  (-0.002894  0.005904  0.000920)
129:   3257.92   0.001571    7.94  0.000151  (-0.011159 -0.005028  0.000843)
130:   3332.00   0.000721    3.64  0.000067  (-0.000998  0.007412  0.003400)
131:   3903.50   0.014159   71.56  0.001132  (-0.016007  0.014904  0.025566)

* The epsilon (eps) is given for a Dirac delta lineshape.
** The dipole moment derivative (T) already includes vibrational overlap.

The first frequency considered to be a vibration is 7
The total number of vibrations considered is 125


--------------------------
THERMOCHEMISTRY AT 298.15K
--------------------------

Temperature         ... 298.15 K
Pressure            ... 1.00 atm
Total Mass          ... 402.21 AMU

Throughout the following assumptions are being made:
  (1) The electronic state is orbitally nondegenerate
  (2) There are no thermally accessible electronically excited states
  (3) Hindered rotations indicated by low frequency modes are not
      treated as such but are treated as vibrations and this may
      cause some error
  (4) All equations used are the standard statistical mechanics
      equations for an ideal gas
  (5) All vibrations are strictly harmonic

freq.      26.81  E(vib)   ...       0.55 
freq.      37.66  E(vib)   ...       0.54 
freq.      45.07  E(vib)   ...       0.53 
freq.      53.93  E(vib)   ...       0.52 
freq.      62.59  E(vib)   ...       0.51 
freq.      62.87  E(vib)   ...       0.51 
freq.      85.31  E(vib)   ...       0.48 
freq.      95.05  E(vib)   ...       0.47 
freq.     104.17  E(vib)   ...       0.46 
freq.     114.50  E(vib)   ...       0.44 
freq.     123.88  E(vib)   ...       0.43 
freq.     130.32  E(vib)   ...       0.43 
freq.     140.37  E(vib)   ...       0.41 
freq.     147.40  E(vib)   ...       0.41 
freq.     150.50  E(vib)   ...       0.40 
freq.     157.35  E(vib)   ...       0.40 
freq.     174.28  E(vib)   ...       0.38 
freq.     182.82  E(vib)   ...       0.37 
freq.     194.21  E(vib)   ...       0.36 
freq.     198.45  E(vib)   ...       0.35 
freq.     219.40  E(vib)   ...       0.33 
freq.     224.80  E(vib)   ...       0.33 
freq.     234.31  E(vib)   ...       0.32 
freq.     255.42  E(vib)   ...       0.30 
freq.     264.72  E(vib)   ...       0.29 
freq.     298.26  E(vib)   ...       0.27 
freq.     308.39  E(vib)   ...       0.26 
freq.     321.17  E(vib)   ...       0.25 
freq.     337.44  E(vib)   ...       0.24 
freq.     359.92  E(vib)   ...       0.22 
freq.     375.31  E(vib)   ...       0.21 
freq.     391.13  E(vib)   ...       0.20 
freq.     415.91  E(vib)   ...       0.18 
freq.     427.78  E(vib)   ...       0.18 
freq.     453.87  E(vib)   ...       0.16 
freq.     456.28  E(vib)   ...       0.16 
freq.     480.51  E(vib)   ...       0.15 
freq.     495.96  E(vib)   ...       0.14 
freq.     587.06  E(vib)   ...       0.10 
freq.     591.84  E(vib)   ...       0.10 
freq.     631.90  E(vib)   ...       0.09 
freq.     633.70  E(vib)   ...       0.09 
freq.     643.59  E(vib)   ...       0.09 
freq.     744.24  E(vib)   ...       0.06 
freq.     745.15  E(vib)   ...       0.06 
freq.     759.55  E(vib)   ...       0.06 
freq.     804.31  E(vib)   ...       0.05 
freq.     811.76  E(vib)   ...       0.05 
freq.     928.12  E(vib)   ...       0.03 
freq.     960.05  E(vib)   ...       0.03 
freq.     982.21  E(vib)   ...       0.02 
freq.     993.22  E(vib)   ...       0.02 
freq.     998.65  E(vib)   ...       0.02 
freq.    1010.62  E(vib)   ...       0.02 
freq.    1016.54  E(vib)   ...       0.02 
freq.    1023.03  E(vib)   ...       0.02 
freq.    1024.45  E(vib)   ...       0.02 
freq.    1028.88  E(vib)   ...       0.02 
freq.    1063.68  E(vib)   ...       0.02 
freq.    1070.05  E(vib)   ...       0.02 
freq.    1078.52  E(vib)   ...       0.02 
freq.    1101.67  E(vib)   ...       0.02 
freq.    1129.29  E(vib)   ...       0.01 
freq.    1132.96  E(vib)   ...       0.01 
freq.    1140.89  E(vib)   ...       0.01 
freq.    1141.44  E(vib)   ...       0.01 
freq.    1205.00  E(vib)   ...       0.01 
freq.    1247.46  E(vib)   ...       0.01 
freq.    1250.88  E(vib)   ...       0.01 
freq.    1259.34  E(vib)   ...       0.01 
freq.    1332.34  E(vib)   ...       0.01 
freq.    1346.61  E(vib)   ...       0.01 
freq.    1357.52  E(vib)   ...       0.01 
freq.    1391.95  E(vib)   ...       0.00 
freq.    1416.37  E(vib)   ...       0.00 
freq.    1420.80  E(vib)   ...       0.00 
freq.    1437.49  E(vib)   ...       0.00 
freq.    1461.99  E(vib)   ...       0.00 
freq.    1464.39  E(vib)   ...       0.00 
freq.    1466.88  E(vib)   ...       0.00 
freq.    1467.99  E(vib)   ...       0.00 
freq.    1471.25  E(vib)   ...       0.00 
freq.    1482.93  E(vib)   ...       0.00 
freq.    1525.29  E(vib)   ...       0.00 
freq.    1527.29  E(vib)   ...       0.00 
freq.    1530.06  E(vib)   ...       0.00 
freq.    1538.64  E(vib)   ...       0.00 
freq.    1539.47  E(vib)   ...       0.00 
freq.    1540.85  E(vib)   ...       0.00 
freq.    1542.94  E(vib)   ...       0.00 
freq.    1547.54  E(vib)   ...       0.00 
freq.    1547.88  E(vib)   ...       0.00 
freq.    1549.48  E(vib)   ...       0.00 
freq.    1554.10  E(vib)   ...       0.00 
freq.    1556.98  E(vib)   ...       0.00 
freq.    1558.70  E(vib)   ...       0.00 
freq.    1572.98  E(vib)   ...       0.00 
freq.    1722.13  E(vib)   ...       0.00 
freq.    1793.44  E(vib)   ...       0.00 
freq.    3095.79  E(vib)   ...       0.00 
freq.    3096.48  E(vib)   ...       0.00 
freq.    3099.94  E(vib)   ...       0.00 
freq.    3102.65  E(vib)   ...       0.00 
freq.    3106.90  E(vib)   ...       0.00 
freq.    3110.54  E(vib)   ...       0.00 
freq.    3118.57  E(vib)   ...       0.00 
freq.    3134.21  E(vib)   ...       0.00 
freq.    3140.98  E(vib)   ...       0.00 
freq.    3153.69  E(vib)   ...       0.00 
freq.    3157.82  E(vib)   ...       0.00 
freq.    3159.19  E(vib)   ...       0.00 
freq.    3188.32  E(vib)   ...       0.00 
freq.    3197.16  E(vib)   ...       0.00 
freq.    3201.56  E(vib)   ...       0.00 
freq.    3212.76  E(vib)   ...       0.00 
freq.    3219.13  E(vib)   ...       0.00 
freq.    3224.51  E(vib)   ...       0.00 
freq.    3226.58  E(vib)   ...       0.00 
freq.    3235.19  E(vib)   ...       0.00 
freq.    3246.73  E(vib)   ...       0.00 
freq.    3251.45  E(vib)   ...       0.00 
freq.    3251.93  E(vib)   ...       0.00 
freq.    3257.92  E(vib)   ...       0.00 
freq.    3332.00  E(vib)   ...       0.00 
freq.    3903.50  E(vib)   ...       0.00 

------------
INNER ENERGY
------------

The inner energy is: U= E(el) + E(ZPE) + E(vib) + E(rot) + E(trans)
    E(el)   - is the total energy from the electronic structure calculation
              = E(kin-el) + E(nuc-el) + E(el-el) + E(nuc-nuc)
    E(ZPE)  - the the zero temperature vibrational energy from the frequency calculation
    E(vib)  - the the finite temperature correction to E(ZPE) due to population
              of excited vibrational states
    E(rot)  - is the rotational thermal energy
    E(trans)- is the translational thermal energy

Summary of contributions to the inner energy U:
Electronic energy                ...  -1712.40596130 Eh
Zero point energy                ...      0.37917808 Eh     237.94 kcal/mol
Thermal vibrational correction   ...      0.02289179 Eh      14.36 kcal/mol
Thermal rotational correction    ...      0.00141627 Eh       0.89 kcal/mol
Thermal translational correction ...      0.00141627 Eh       0.89 kcal/mol
-----------------------------------------------------------------------
Total thermal energy                  -1712.00105890 Eh


Summary of corrections to the electronic energy:
(perhaps to be used in another calculation)
Total thermal correction                  0.02572433 Eh      16.14 kcal/mol
Non-thermal (ZPE) correction              0.37917808 Eh     237.94 kcal/mol
-----------------------------------------------------------------------
Total correction                          0.40490241 Eh     254.08 kcal/mol


--------
ENTHALPY
--------

The enthalpy is H = U + kB*T
                kB is Boltzmann's constant
Total free energy                 ...  -1712.00105890 Eh 
Thermal Enthalpy correction       ...      0.00094421 Eh       0.59 kcal/mol
-----------------------------------------------------------------------
Total Enthalpy                    ...  -1712.00011469 Eh


Note: Only C1 symmetry has been detected, increase convergence thresholds 
      if your molecule has a higher symmetry. Symmetry factor of 1.0 is   
      used for the rotational entropy correction. 
 

Note: Rotational entropy computed according to Herzberg 
Infrared and Raman Spectra, Chapter V,1, Van Nostrand Reinhold, 1945 
Point Group:  C1, Symmetry Number:   1  
Rotational constants in cm-1:     0.012268     0.008081     0.007310 

Vibrational entropy computed according to the QRRHO of S. Grimme
Chem.Eur.J. 2012 18 9955


-------
ENTROPY
-------

The entropy contributions are T*S = T*(S(el)+S(vib)+S(rot)+S(trans))
     S(el)   - electronic entropy
     S(vib)  - vibrational entropy
     S(rot)  - rotational entropy
     S(trans)- translational entropy
The entropies will be listed as multiplied by the temperature to get
units of energy

Electronic entropy                ...      0.00000000 Eh      0.00 kcal/mol
Vibrational entropy               ...      0.04168562 Eh     26.16 kcal/mol
Rotational entropy                ...      0.01618501 Eh     10.16 kcal/mol
Translational entropy             ...      0.02084243 Eh     13.08 kcal/mol
-----------------------------------------------------------------------
Final entropy term                ...      0.07871306 Eh     49.39 kcal/mol

In case the symmetry of your molecule has not been determined correctly
or in case you have a reason to use a different symmetry number we print 
out the resulting rotational entropy values for sn=1,12 :
 --------------------------------------------------------
|  sn= 1 | S(rot)=       0.01618501 Eh     10.16 kcal/mol|
|  sn= 2 | S(rot)=       0.01553055 Eh      9.75 kcal/mol|
|  sn= 3 | S(rot)=       0.01514772 Eh      9.51 kcal/mol|
|  sn= 4 | S(rot)=       0.01487609 Eh      9.33 kcal/mol|
|  sn= 5 | S(rot)=       0.01466541 Eh      9.20 kcal/mol|
|  sn= 6 | S(rot)=       0.01449326 Eh      9.09 kcal/mol|
|  sn= 7 | S(rot)=       0.01434772 Eh      9.00 kcal/mol|
|  sn= 8 | S(rot)=       0.01422164 Eh      8.92 kcal/mol|
|  sn= 9 | S(rot)=       0.01411043 Eh      8.85 kcal/mol|
|  sn=10 | S(rot)=       0.01401095 Eh      8.79 kcal/mol|
|  sn=11 | S(rot)=       0.01392096 Eh      8.74 kcal/mol|
|  sn=12 | S(rot)=       0.01383881 Eh      8.68 kcal/mol|
 --------------------------------------------------------


-------------------
GIBBS FREE ENERGY
-------------------

The Gibbs free energy is G = H - T*S

Total enthalpy                    ...  -1712.00011469 Eh 
Total entropy correction          ...     -0.07871306 Eh    -49.39 kcal/mol
-----------------------------------------------------------------------
Final Gibbs free energy         ...  -1712.07882774 Eh

For completeness - the Gibbs free energy minus the electronic energy
G-E(el)                           ...      0.32713356 Eh    205.28 kcal/mol


Timings for individual modules:

Sum of individual times         ...      558.969 sec (=   9.316 min)
GTO integral calculation        ...        1.328 sec (=   0.022 min)   0.2 %
SCF iterations                  ...       40.497 sec (=   0.675 min)   7.2 %
Analytical frequency calculation...      517.144 sec (=   8.619 min)  92.5 %
                             ****ORCA TERMINATED NORMALLY****
TOTAL RUN TIME: 0 days 0 hours 9 minutes 19 seconds 941 msec
