
                                 *****************
                                 * O   R   C   A *
                                 *****************

                                            #,                                       
                                            ###                                      
                                            ####                                     
                                            #####                                    
                                            ######                                   
                                           ########,                                 
                                     ,,################,,,,,                         
                               ,,#################################,,                 
                          ,,##########################################,,             
                       ,#########################################, ''#####,          
                    ,#############################################,,   '####,        
                  ,##################################################,,,,####,       
                ,###########''''           ''''###############################       
              ,#####''   ,,,,##########,,,,          '''####'''          '####       
            ,##' ,,,,###########################,,,                        '##       
           ' ,,###''''                  '''############,,,                           
         ,,##''                                '''############,,,,        ,,,,,,###''
      ,#''                                            '''#######################'''  
     '                                                          ''''####''''         
             ,#######,   #######,   ,#######,      ##                                
            ,#'     '#,  ##    ##  ,#'     '#,    #''#        ######   ,####,        
            ##       ##  ##   ,#'  ##            #'  '#       #        #'  '#        
            ##       ##  #######   ##           ,######,      #####,   #    #        
            '#,     ,#'  ##    ##  '#,     ,#' ,#      #,         ##   #,  ,#        
             '#######'   ##     ##  '#######'  #'      '#     #####' # '####'        



                  #######################################################
                  #                        -***-                        #
                  #          Department of theory and spectroscopy      #
                  #    Directorship and core code : Frank Neese         #
                  #        Max Planck Institute fuer Kohlenforschung    #
                  #                Kaiser Wilhelm Platz 1               #
                  #                 D-45470 Muelheim/Ruhr               #
                  #                      Germany                        #
                  #                                                     #
                  #                  All rights reserved                #
                  #                        -***-                        #
                  #######################################################


                         Program Version 5.0.2 -  RELEASE  -


 With contributions from (in alphabetic order):
   Daniel Aravena         : Magnetic Suceptibility
   Michael Atanasov       : Ab Initio Ligand Field Theory (pilot matlab implementation)
   Alexander A. Auer      : GIAO ZORA, VPT2 properties, NMR spectrum
   Ute Becker             : Parallelization
   Giovanni Bistoni       : ED, misc. LED, open-shell LED, HFLD
   Martin Brehm           : Molecular dynamics
   Dmytro Bykov           : SCF Hessian
   Vijay G. Chilkuri      : MRCI spin determinant printing, contributions to CSF-ICE
   Dipayan Datta          : RHF DLPNO-CCSD density
   Achintya Kumar Dutta   : EOM-CC, STEOM-CC
   Dmitry Ganyushin       : Spin-Orbit,Spin-Spin,Magnetic field MRCI
   Miquel Garcia          : C-PCM and meta-GGA Hessian, CC/C-PCM, Gaussian charge scheme
   Yang Guo               : DLPNO-NEVPT2, F12-NEVPT2, CIM, IAO-localization
   Andreas Hansen         : Spin unrestricted coupled pair/coupled cluster methods
   Benjamin Helmich-Paris : MC-RPA, TRAH-SCF, COSX integrals
   Lee Huntington         : MR-EOM, pCC
   Robert Izsak           : Overlap fitted RIJCOSX, COSX-SCS-MP3, EOM
   Marcus Kettner         : VPT2
   Christian Kollmar      : KDIIS, OOCD, Brueckner-CCSD(T), CCSD density, CASPT2, CASPT2-K
   Simone Kossmann        : Meta GGA functionals, TD-DFT gradient, OOMP2, MP2 Hessian
   Martin Krupicka        : Initial AUTO-CI
   Lucas Lang             : DCDCAS
   Marvin Lechner         : AUTO-CI (C++ implementation), FIC-MRCC
   Dagmar Lenk            : GEPOL surface, SMD
   Dimitrios Liakos       : Extrapolation schemes; Compound Job, initial MDCI parallelization
   Dimitrios Manganas     : Further ROCIS development; embedding schemes
   Dimitrios Pantazis     : SARC Basis sets
   Anastasios Papadopoulos: AUTO-CI, single reference methods and gradients
   Taras Petrenko         : DFT Hessian,TD-DFT gradient, ASA, ECA, R-Raman, ABS, FL, XAS/XES, NRVS
   Peter Pinski           : DLPNO-MP2, DLPNO-MP2 Gradient
   Christoph Reimann      : Effective Core Potentials
   Marius Retegan         : Local ZFS, SOC
   Christoph Riplinger    : Optimizer, TS searches, QM/MM, DLPNO-CCSD(T), (RO)-DLPNO pert. Triples
   Tobias Risthaus        : Range-separated hybrids, TD-DFT gradient, RPA, STAB
   Michael Roemelt        : Original ROCIS implementation
   Masaaki Saitow         : Open-shell DLPNO-CCSD energy and density
   Barbara Sandhoefer     : DKH picture change effects
   Avijit Sen             : IP-ROCIS
   Kantharuban Sivalingam : CASSCF convergence, NEVPT2, FIC-MRCI
   Bernardo de Souza      : ESD, SOC TD-DFT
   Georgi Stoychev        : AutoAux, RI-MP2 NMR, DLPNO-MP2 response
   Willem Van den Heuvel  : Paramagnetic NMR
   Boris Wezisla          : Elementary symmetry handling
   Frank Wennmohs         : Technical directorship


 We gratefully acknowledge several colleagues who have allowed us to
 interface, adapt or use parts of their codes:
   Stefan Grimme, W. Hujo, H. Kruse, P. Pracht,  : VdW corrections, initial TS optimization,
                  C. Bannwarth, S. Ehlert          DFT functionals, gCP, sTDA/sTD-DF
   Ed Valeev, F. Pavosevic, A. Kumar             : LibInt (2-el integral package), F12 methods
   Garnet Chan, S. Sharma, J. Yang, R. Olivares  : DMRG
   Ulf Ekstrom                                   : XCFun DFT Library
   Mihaly Kallay                                 : mrcc  (arbitrary order and MRCC methods)
   Jiri Pittner, Ondrej Demel                    : Mk-CCSD
   Frank Weinhold                                : gennbo (NPA and NBO analysis)
   Christopher J. Cramer and Donald G. Truhlar   : smd solvation model
   Lars Goerigk                                  : TD-DFT with DH, B97 family of functionals
   V. Asgeirsson, H. Jonsson                     : NEB implementation
   FAccTs GmbH                                   : IRC, NEB, NEB-TS, DLPNO-Multilevel, CI-OPT
                                                   MM, QMMM, 2- and 3-layer-ONIOM, Crystal-QMMM,
                                                   LR-CPCM, SF, NACMEs, symmetry and pop. for TD-DFT,
                                                   nearIR, NL-DFT gradient (VV10), updates on ESD,
                                                   ML-optimized integration grids
   S Lehtola, MJT Oliveira, MAL Marques          : LibXC Library
   Liviu Ungur et al                             : ANISO software


 Your calculation uses the libint2 library for the computation of 2-el integrals
 For citations please refer to: http://libint.valeyev.net

 Your ORCA version has been built with support for libXC version: 5.1.0
 For citations please refer to: https://tddft.org/programs/libxc/

 This ORCA versions uses:
   CBLAS   interface :  Fast vector & matrix operations
   LAPACKE interface :  Fast linear algebra routines
   SCALAPACK package :  Parallel linear algebra routines
   Shared memory     :  Shared parallel matrices
   BLAS/LAPACK       :  OpenBLAS 0.3.15  USE64BITINT DYNAMIC_ARCH NO_AFFINITY SkylakeX SINGLE_THREADED
        Core in use  :  SkylakeX
   Copyright (c) 2011-2014, The OpenBLAS Project


Your calculation utilizes the geometrical counterpoise correction gCP
Please cite in your paper:
H.Kruse, S. Grimme J.Chem.Phys., 136, (2012), 154101 
   

Your calculation utilizes the atom-pairwise dispersion correction
with the Becke-Johnson damping scheme (D3BJ)
Cite in your paper:
S.Grimme, S.Ehrlich, L.Goerigk, J Comput Chem, (2011), 32, 1456–1465 
S.Grimme, J.Antony, S.Ehrlich and H.Krieg, J.Chem.Phys., 132, (2010), 154104 
   

Your calculation employs the composite approach PBEh-3c.
Please cite in your paper:
S. Grimme, J. G. Brandenburg, C. Bannwarth, A. Hansen J.Chem.Phys., 143, (2015), 054107 
   

================================================================================

----- Orbital basis set information -----
Your calculation utilizes the basis: def2-mSVP

----- AuxJ basis set information -----
Your calculation utilizes the auxiliary basis: def2/J
   F. Weigend, Phys. Chem. Chem. Phys. 8, 1057 (2006).

================================================================================
                                        WARNINGS
                       Please study these warnings very carefully!
================================================================================


WARNING: Geometry Optimization
  ===> : Switching off AutoStart
         For restart on a previous wavefunction, please use MOREAD

INFO   : the flag for use of the SHARK integral package has been found!

================================================================================
                                       INPUT FILE
================================================================================
NAME = PBEh_3c_opt___C3H9GeNOS.inp
|  1> !PBEh-3c  DefGrid2 TightSCF OPT
|  2> %maxcore 2625.0
|  3> %pal nprocs = 8  end
|  4> %
|  5> end
|  6> %output XYZFILE 1 end
|  7> * xyz 0 1
|  8> N     -1.323324    0.478504   -1.275991
|  9> C     -2.294879    0.204463   -0.200243
| 10> C     -1.494818    0.391642    1.096458
| 11> O     -0.625485   -0.726501    1.109333
| 12> Ge     0.103238   -0.523841   -0.540050
| 13> S      1.912424    0.687044   -0.352072
| 14> C      3.160326   -0.266936    0.553867
| 15> H     -1.070079    1.490100   -1.254332
| 16> H     -2.539304   -0.870104   -0.246735
| 17> H     -3.157370    0.860458   -0.238018
| 18> H     -2.197700    0.366130    1.923646
| 19> H     -0.862774    1.285914    1.041079
| 20> H      0.290191   -1.853689   -1.251430
| 21> H      3.108190   -1.327233    0.173660
| 22> H      4.173394    0.112779    0.426013
| 23> H      2.817972   -0.308730    1.614619
| 24> *
| 25> 
| 26>                          ****END OF INPUT****
================================================================================

                       *****************************
                       * Geometry Optimization Run *
                       *****************************

Geometry optimization settings:
Update method            Update   .... BFGS
Choice of coordinates    CoordSys .... Z-matrix Internals
Initial Hessian          InHess   .... Almoef's Model

Convergence Tolerances:
Energy Change            TolE     ....  5.0000e-06 Eh
Max. Gradient            TolMAXG  ....  3.0000e-04 Eh/bohr
RMS Gradient             TolRMSG  ....  1.0000e-04 Eh/bohr
Max. Displacement        TolMAXD  ....  4.0000e-03 bohr
RMS Displacement         TolRMSD  ....  2.0000e-03 bohr
Strict Convergence                ....  False
------------------------------------------------------------------------------
                        ORCA OPTIMIZATION COORDINATE SETUP
------------------------------------------------------------------------------

The optimization will be done in new redundant internal coordinates
Making redundant internal coordinates   ...  (new redundants) done
Evaluating the initial hessian          ...  (Almloef) done
Evaluating the coordinates              ...  done
Calculating the B-matrix                .... done
Calculating the G-matrix                .... done
Diagonalizing the G-matrix              .... done
The first mode is                       ....  104
The number of degrees of freedom        ....   42

    -----------------------------------------------------------------
                    Redundant Internal Coordinates


    -----------------------------------------------------------------
         Definition                    Initial Value    Approx d2E/dq
    -----------------------------------------------------------------
      1. B(C   1,N   0)                  1.4752         0.409190   
      2. B(C   2,C   1)                  1.5351         0.366625   
      3. B(O   3,C   2)                  1.4164         0.507900   
      4. B(Ge  4,C   2)                  2.4637         0.084767   
      5. B(Ge  4,C   1)                  2.5292         0.066649   
      6. B(Ge  4,O   3)                  1.8145         0.824371   
      7. B(Ge  4,N   0)                  1.8925         0.619188   
      8. B(S   5,Ge  4)                  2.1851         0.636108   
      9. B(C   6,S   5)                  1.8133         0.355759   
     10. B(H   7,N   0)                  1.0430         0.383252   
     11. B(H   8,C   1)                  1.1030         0.343312   
     12. B(H   9,C   1)                  1.0843         0.367757   
     13. B(H  10,C   2)                  1.0858         0.365716   
     14. B(H  11,C   2)                  1.0965         0.351629   
     15. B(H  12,Ge  4)                  1.5197         0.520517   
     16. B(H  13,C   6)                  1.1276         0.313630   
     17. B(H  14,C   6)                  1.0894         0.360867   
     18. B(H  15,C   6)                  1.1154         0.328002   
     19. A(C   1,N   0,H   7)          108.9609         0.327811   
     20. A(Ge  4,N   0,H   7)          108.8196         0.386609   
     21. A(C   1,N   0,Ge  4)           96.5739         0.439449   
     22. A(H   8,C   1,H   9)          114.3100         0.289623   
     23. A(Ge  4,C   1,H   8)           85.6365         0.267435   
     24. A(Ge  4,C   1,H   9)          157.4829         0.270235   
     25. A(N   0,C   1,Ge  4)           48.0152         0.301905   
     26. A(N   0,C   1,C   2)          104.4820         0.365582   
     27. A(C   2,C   1,Ge  4)           69.7838         0.298401   
     28. A(N   0,C   1,H   8)          107.2285         0.324682   
     29. A(N   0,C   1,H   9)          112.7110         0.328380   
     30. A(C   2,C   1,H   9)          111.7298         0.324439   
     31. A(C   2,C   1,H   8)          105.6575         0.320802   
     32. A(C   1,C   2,Ge  4)           74.4348         0.310113   
     33. A(O   3,C   2,H  10)          111.8296         0.340063   
     34. A(C   1,C   2,H  10)          107.6541         0.324143   
     35. A(C   1,C   2,O   3)          103.3737         0.379447   
     36. A(Ge  4,C   2,H  10)          156.5192         0.280131   
     37. A(H  10,C   2,H  11)          115.5178         0.290459   
     38. A(Ge  4,C   2,H  11)           84.0085         0.278439   
     39. A(O   3,C   2,H  11)          106.8888         0.337841   
     40. A(C   1,C   2,H  11)          110.9286         0.322062   
     41. A(O   3,C   2,Ge  4)           46.7322         0.325083   
     42. A(C   2,O   3,Ge  4)           98.6303         0.481646   
     43. A(N   0,Ge  4,S   5)          111.3506         0.554471   
     44. A(C   2,Ge  4,O   3)           34.6374         0.387916   
     45. A(C   1,Ge  4,O   3)           61.9170         0.372082   
     46. A(N   0,Ge  4,O   3)           96.3100         0.554962   
     47. A(N   0,Ge  4,C   1)           35.4110         0.354325   
     48. A(S   5,Ge  4,H  12)          115.0453         0.495238   
     49. A(C   1,Ge  4,C   2)           35.7815         0.259207   
     50. A(N   0,Ge  4,C   2)           64.6944         0.369166   
     51. A(C   1,Ge  4,H  12)          115.5639         0.320562   
     52. A(N   0,Ge  4,H  12)          111.9736         0.470158   
     53. A(O   3,Ge  4,S   5)          108.4335         0.585622   
     54. A(C   2,Ge  4,S   5)          105.9014         0.387601   
     55. A(C   2,Ge  4,H  12)          135.7157         0.333514   
     56. A(O   3,Ge  4,H  12)          112.1583         0.495667   
     57. A(C   1,Ge  4,S   5)          127.8732         0.371784   
     58. A(Ge  4,S   5,C   6)          108.7377         0.479482   
     59. A(H  14,C   6,H  15)          114.2103         0.286714   
     60. A(H  13,C   6,H  15)          105.7376         0.280535   
     61. A(S   5,C   6,H  15)          106.4757         0.332861   
     62. A(H  13,C   6,H  14)          109.3395         0.284719   
     63. A(S   5,C   6,H  14)          113.4505         0.338189   
     64. A(S   5,C   6,H  13)          107.1227         0.330401   
     65. D(H   9,C   1,N   0,H   7)     53.5464         0.015296   
     66. D(H   8,C   1,N   0,H   7)   -179.7964         0.015296   
     67. D(H   9,C   1,N   0,Ge  4)    166.0628         0.015296   
     68. D(C   2,C   1,N   0,H   7)    -67.9617         0.015296   
     69. D(H   8,C   1,N   0,Ge  4)    -67.2801         0.015296   
     70. D(C   2,C   1,N   0,Ge  4)     44.5546         0.015296   
     71. D(Ge  4,C   1,N   0,H   7)   -112.5164         0.015296   
     72. D(H  10,C   2,C   1,H   9)     48.5075         0.012013   
     73. D(H  11,C   2,C   1,N   0)     43.3801         0.012013   
     74. D(Ge  4,C   2,C   1,H   9)   -155.9157         0.012013   
     75. D(Ge  4,C   2,C   1,N   0)    -33.7619         0.012013   
     76. D(H  11,C   2,C   1,Ge  4)     77.1420         0.012013   
     77. D(O   3,C   2,C   1,H   8)     42.0956         0.012013   
     78. D(H  10,C   2,C   1,N   0)    170.6613         0.012013   
     79. D(H  10,C   2,C   1,H   8)    -76.3790         0.012013   
     80. D(H  10,C   2,C   1,Ge  4)   -155.5768         0.012013   
     81. D(O   3,C   2,C   1,Ge  4)    -37.1023         0.012013   
     82. D(Ge  4,C   2,C   1,H   8)     79.1978         0.012013   
     83. D(O   3,C   2,C   1,N   0)    -70.8642         0.012013   
     84. D(H  11,C   2,C   1,H   8)    156.3398         0.012013   
     85. D(O   3,C   2,C   1,H   9)    166.9820         0.012013   
     86. D(H  11,C   2,C   1,H   9)    -78.7737         0.012013   
     87. D(Ge  4,O   3,C   2,H  10)    168.4789         0.022152   
     88. D(Ge  4,O   3,C   2,C   1)     52.9455         0.022152   
     89. D(Ge  4,O   3,C   2,H  11)    -64.1769         0.022152   
     90. D(O   3,Ge  4,N   0,H   7)     99.2666         0.004502   
     91. D(O   3,Ge  4,N   0,C   1)    -13.3661         0.004502   
     92. D(C   1,Ge  4,C   2,O   3)    126.2950         0.001560   
     93. D(O   3,Ge  4,C   2,C   1)   -126.2950         0.001560   
     94. D(S   5,Ge  4,N   0,C   1)   -125.9973         0.004502   
     95. D(N   0,Ge  4,C   2,H  11)    -86.0642         0.001560   
     96. D(C   2,Ge  4,N   0,H   7)     84.7163         0.004502   
     97. D(C   2,Ge  4,N   0,C   1)    -27.9164         0.004502   
     98. D(H  12,Ge  4,C   1,H   9)   -127.9284         0.001538   
     99. D(C   1,Ge  4,N   0,H   7)    112.6327         0.004502   
    100. D(H  12,Ge  4,C   1,H   8)     25.4575         0.001538   
    101. D(H  12,Ge  4,C   1,C   2)    133.9113         0.001538   
    102. D(H  12,Ge  4,C   1,N   0)    -92.4655         0.001538   
    103. D(S   5,Ge  4,C   1,H   9)     37.2028         0.001538   
    104. D(S   5,Ge  4,C   1,C   2)    -60.9576         0.001538   
    105. D(S   5,Ge  4,C   1,N   0)     72.6657         0.001538   
    106. D(O   3,Ge  4,C   1,H   9)    129.4413         0.001538   
    107. D(O   3,Ge  4,C   1,H   8)    -77.1728         0.001538   
    108. D(O   3,Ge  4,C   1,C   2)     31.2810         0.001538   
    109. D(O   3,Ge  4,C   1,N   0)    164.9042         0.001538   
    110. D(S   5,Ge  4,C   1,H   8)   -169.4113         0.001538   
    111. D(C   2,Ge  4,C   1,H   9)     98.1603         0.001538   
    112. D(C   2,Ge  4,C   1,H   8)   -108.4538         0.001538   
    113. D(C   2,Ge  4,C   1,N   0)    133.6232         0.001538   
    114. D(H  12,Ge  4,O   3,C   2)   -140.3936         0.006552   
    115. D(S   5,Ge  4,O   3,C   2)     91.4688         0.006552   
    116. D(N   0,Ge  4,C   2,C   1)     27.6437         0.001560   
    117. D(N   0,Ge  4,C   2,O   3)    153.9388         0.001560   
    118. D(N   0,Ge  4,C   2,H  10)    126.2073         0.001560   
    119. D(C   1,Ge  4,O   3,C   2)    -32.2855         0.006552   
    120. D(N   0,Ge  4,C   1,H   8)    117.9230         0.001538   
    121. D(C   1,Ge  4,C   2,H  10)     98.5635         0.001560   
    122. D(C   1,Ge  4,C   2,H  11)   -113.7079         0.001560   
    123. D(N   0,Ge  4,C   1,C   2)   -133.6232         0.001538   
    124. D(O   3,Ge  4,C   2,H  10)    -27.7315         0.001560   
    125. D(O   3,Ge  4,C   2,H  11)    119.9970         0.001560   
    126. D(S   5,Ge  4,C   2,C   1)    134.1455         0.001560   
    127. D(H  12,Ge  4,C   2,O   3)     57.7382         0.001560   
    128. D(H  12,Ge  4,N   0,H   7)   -143.7451         0.004502   
    129. D(H  12,Ge  4,C   2,C   1)    -68.5569         0.001560   
    130. D(S   5,Ge  4,C   2,H  11)     20.4375         0.001560   
    131. D(H  12,Ge  4,N   0,C   1)    103.6222         0.004502   
    132. D(H  12,Ge  4,C   2,H  10)     30.0067         0.001560   
    133. D(H  12,Ge  4,C   2,H  11)    177.7352         0.001560   
    134. D(N   0,Ge  4,O   3,C   2)    -23.5528         0.006552   
    135. D(S   5,Ge  4,C   2,H  10)   -127.2910         0.001560   
    136. D(S   5,Ge  4,C   2,O   3)    -99.5595         0.001560   
    137. D(S   5,Ge  4,N   0,H   7)    -13.3646         0.004502   
    138. D(N   0,Ge  4,C   1,H   9)    -35.4629         0.001538   
    139. D(C   6,S   5,Ge  4,H  12)    -58.5879         0.002449   
    140. D(C   6,S   5,Ge  4,O   3)     67.8942         0.002449   
    141. D(C   6,S   5,Ge  4,C   2)    104.1082         0.002449   
    142. D(C   6,S   5,Ge  4,C   1)    136.2160         0.002449   
    143. D(C   6,S   5,Ge  4,N   0)    172.6487         0.002449   
    144. D(H  15,C   6,S   5,Ge  4)    -71.7636         0.003524   
    145. D(H  14,C   6,S   5,Ge  4)    161.7636         0.003524   
    146. D(H  13,C   6,S   5,Ge  4)     41.0091         0.003524   
    -----------------------------------------------------------------

Number of atoms                         .... 16
Number of degrees of freedom            .... 146

         *************************************************************
         *                GEOMETRY OPTIMIZATION CYCLE   1            *
         *************************************************************
---------------------------------
CARTESIAN COORDINATES (ANGSTROEM)
---------------------------------
  N     -1.323324    0.478504   -1.275991
  C     -2.294879    0.204463   -0.200243
  C     -1.494818    0.391642    1.096458
  O     -0.625485   -0.726501    1.109333
  Ge     0.103238   -0.523841   -0.540050
  S      1.912424    0.687044   -0.352072
  C      3.160326   -0.266936    0.553867
  H     -1.070079    1.490100   -1.254332
  H     -2.539304   -0.870104   -0.246735
  H     -3.157370    0.860458   -0.238018
  H     -2.197700    0.366130    1.923646
  H     -0.862774    1.285914    1.041079
  H      0.290191   -1.853689   -1.251430
  H      3.108190   -1.327233    0.173660
  H      4.173394    0.112779    0.426013
  H      2.817972   -0.308730    1.614619

----------------------------
CARTESIAN COORDINATES (A.U.)
----------------------------
  NO LB      ZA    FRAG     MASS         X           Y           Z
   0 N     7.0000    0    14.007   -2.500720    0.904242   -2.411274
   1 C     6.0000    0    12.011   -4.336693    0.386379   -0.378404
   2 C     6.0000    0    12.011   -2.824797    0.740096    2.072005
   3 O     8.0000    0    15.999   -1.181995   -1.372888    2.096336
   4 Ge   32.0000    0    72.590    0.195092   -0.989916   -1.020547
   5 S    16.0000    0    32.060    3.613958    1.298325   -0.665320
   6 C     6.0000    0    12.011    5.972151   -0.504436    1.046657
   7 H     1.0000    0     1.008   -2.022156    2.815881   -2.370344
   8 H     1.0000    0     1.008   -4.798589   -1.644258   -0.466262
   9 H     1.0000    0     1.008   -5.966565    1.626030   -0.449789
  10 H     1.0000    0     1.008   -4.153051    0.691885    3.635164
  11 H     1.0000    0     1.008   -1.630407    2.430025    1.967354
  12 H     1.0000    0     1.008    0.548382   -3.502965   -2.364860
  13 H     1.0000    0     1.008    5.873628   -2.508107    0.328170
  14 H     1.0000    0     1.008    7.886572    0.213121    0.805048
  15 H     1.0000    0     1.008    5.325195   -0.583415    3.051188

--------------------------------
INTERNAL COORDINATES (ANGSTROEM)
--------------------------------
 N      0   0   0     0.000000000000     0.00000000     0.00000000
 C      1   0   0     1.475212305809     0.00000000     0.00000000
 C      2   1   0     1.535111417834   104.48199901     0.00000000
 O      3   2   1     1.416386034583   103.37371714   289.13581508
 Ge     4   3   2     1.814544727202    98.63030688    52.94547058
 S      5   4   3     2.185116059688   108.43350933    91.46880109
 C      6   5   4     1.813301605835   108.73766128    67.89420380
 H      1   2   3     1.043038163023   108.96093725   292.03828339
 H      2   1   3     1.102995613853   107.22845565   248.16531135
 H      2   1   3     1.084272620576   112.71096363   121.50812370
 H      3   2   1     1.085787251450   107.65411132   170.66127341
 H      3   2   1     1.096480214852   110.92858389    43.38008013
 H      5   4   3     1.519706758461   112.15834177   219.60638185
 H      7   6   5     1.127610417455   107.12268047    41.00913492
 H      7   6   5     1.089420441870   113.45045462   161.76358868
 H      7   6   5     1.115413737254   106.47573991   288.23637881

---------------------------
INTERNAL COORDINATES (A.U.)
---------------------------
 N      0   0   0     0.000000000000     0.00000000     0.00000000
 C      1   0   0     2.787747247369     0.00000000     0.00000000
 C      2   1   0     2.900940164761   104.48199901     0.00000000
 O      3   2   1     2.676581705273   103.37371714   289.13581508
 Ge     4   3   2     3.428992592163    98.63030688    52.94547058
 S      5   4   3     4.129270923643   108.43350933    91.46880109
 C      6   5   4     3.426643433228   108.73766128    67.89420380
 H      1   2   3     1.971056475341   108.96093725   292.03828339
 H      2   1   3     2.084359637098   107.22845565   248.16531135
 H      2   1   3     2.048978307398   112.71096363   121.50812370
 H      3   2   1     2.051840544944   107.65411132   170.66127341
 H      3   2   1     2.072047317333   110.92858389    43.38008013
 H      5   4   3     2.871829577361   112.15834177   219.60638185
 H      7   6   5     2.130874874747   107.12268047    41.00913492
 H      7   6   5     2.058706279830   113.45045462   161.76358868
 H      7   6   5     2.107826489425   106.47573991   288.23637881

---------------------
BASIS SET INFORMATION
---------------------
There are 6 groups of distinct atoms

 Group   1 Type N   : 8s4p1d contracted to 4s2p1d pattern {5111/31/1}
 Group   2 Type C   : 8s4p1d contracted to 4s2p1d pattern {5111/31/1}
 Group   3 Type O   : 8s4p1d contracted to 4s2p1d pattern {5111/31/1}
 Group   4 Type Ge  : 14s10p6d contracted to 5s4p3d pattern {63311/5311/411}
 Group   5 Type S   : 10s7p1d contracted to 4s3p1d pattern {5311/511/1}
 Group   6 Type H   : 4s contracted to 2s pattern {31}

Atom   0N    basis set group =>   1
Atom   1C    basis set group =>   2
Atom   2C    basis set group =>   2
Atom   3O    basis set group =>   3
Atom   4Ge   basis set group =>   4
Atom   5S    basis set group =>   5
Atom   6C    basis set group =>   2
Atom   7H    basis set group =>   6
Atom   8H    basis set group =>   6
Atom   9H    basis set group =>   6
Atom  10H    basis set group =>   6
Atom  11H    basis set group =>   6
Atom  12H    basis set group =>   6
Atom  13H    basis set group =>   6
Atom  14H    basis set group =>   6
Atom  15H    basis set group =>   6
---------------------------------
AUXILIARY/J BASIS SET INFORMATION
---------------------------------
There are 6 groups of distinct atoms

 Group   1 Type N   : 12s5p4d2f1g contracted to 6s4p3d1f1g pattern {711111/2111/211/2/1}
 Group   2 Type C   : 12s5p4d2f1g contracted to 6s4p3d1f1g pattern {711111/2111/211/2/1}
 Group   3 Type O   : 12s5p4d2f1g contracted to 6s4p3d1f1g pattern {711111/2111/211/2/1}
 Group   4 Type Ge  : 19s5p5d3f1g contracted to 8s4p3d2f1g pattern {121111111/2111/311/21/1}
 Group   5 Type S   : 14s5p5d2f1g contracted to 8s4p3d1f1g pattern {71111111/2111/311/2/1}
 Group   6 Type H   : 5s2p1d contracted to 3s1p1d pattern {311/2/1}

Atom   0N    basis set group =>   1
Atom   1C    basis set group =>   2
Atom   2C    basis set group =>   2
Atom   3O    basis set group =>   3
Atom   4Ge   basis set group =>   4
Atom   5S    basis set group =>   5
Atom   6C    basis set group =>   2
Atom   7H    basis set group =>   6
Atom   8H    basis set group =>   6
Atom   9H    basis set group =>   6
Atom  10H    basis set group =>   6
Atom  11H    basis set group =>   6
Atom  12H    basis set group =>   6
Atom  13H    basis set group =>   6
Atom  14H    basis set group =>   6
Atom  15H    basis set group =>   6


           ************************************************************
           *        Program running with 8 parallel MPI-processes     *
           *              working on a common directory               *
           ************************************************************
------------------------------------------------------------------------------
                           ORCA GTO INTEGRAL CALCULATION
                           -- RI-GTO INTEGRALS CHOSEN --
------------------------------------------------------------------------------
------------------------------------------------------------------------------
                   ___                                                        
                  /   \      - P O W E R E D   B Y -                         
                 /     \                                                     
                 |  |  |   _    _      __       _____    __    __             
                 |  |  |  | |  | |    /  \     |  _  \  |  |  /  |          
                  \  \/   | |  | |   /    \    | | | |  |  | /  /          
                 / \  \   | |__| |  /  /\  \   | |_| |  |  |/  /          
                |  |  |   |  __  | /  /__\  \  |    /   |      \           
                |  |  |   | |  | | |   __   |  |    \   |  |\   \          
                \     /   | |  | | |  |  |  |  | |\  \  |  | \   \       
                 \___/    |_|  |_| |__|  |__|  |_| \__\ |__|  \__/        
                                                                              
                      - O R C A' S   B I G   F R I E N D -                    
                                      &                                       
                       - I N T E G R A L  F E E D E R -                       
                                                                              
 v1 FN, 2020, v2 2021                                                         
------------------------------------------------------------------------------


Reading SHARK input file PBEh_3c_opt___C3H9GeNOS.SHARKINP.tmp ... ok
----------------------
SHARK INTEGRAL PACKAGE
----------------------

Number of atoms                             ...     16
Number of basis functions                   ...    143
Number of shells                            ...     73
Maximum angular momentum                    ...      2
Integral batch strategy                     ... SHARK/LIBINT Hybrid
RI-J (if used) integral strategy            ... SPLIT-RIJ (Revised 2003 algorithm where possible)
Printlevel                                  ...      1
Contraction scheme used                     ... SEGMENTED contraction
Coulomb Range Separation                    ... NOT USED
Exchange Range Separation                   ... NOT USED
Finite Nucleus Model                        ... NOT USED
Auxiliary Coulomb fitting basis             ... AVAILABLE
   # of basis functions in Aux-J            ...    453
   # of shells in Aux-J                     ...    155
   Maximum angular momentum in Aux-J        ...      4
Auxiliary J/K fitting basis                 ... NOT available
Auxiliary Correlation fitting basis         ... NOT available
Auxiliary 'external' fitting basis          ... NOT available
Integral threshold                          ...     2.500000e-11
Primitive cut-off                           ...     2.500000e-12
Primitive pair pre-selection threshold      ...     2.500000e-12

Calculating pre-screening integrals         ... done (  0.0 sec) Dimension = 73
Organizing shell pair data                  ... done (  0.0 sec)
Shell pair information
Total number of shell pairs                 ...      2701
Shell pairs after pre-screening             ...      2392
Total number of primitive shell pairs       ...     11330
Primitive shell pairs kept                  ...      6866
          la=0 lb=0:    943 shell pairs
          la=1 lb=0:    730 shell pairs
          la=1 lb=1:    152 shell pairs
          la=2 lb=0:    375 shell pairs
          la=2 lb=1:    149 shell pairs
          la=2 lb=2:     43 shell pairs

Calculating one electron integrals          ... done (  0.0 sec)
Calculating RI/J V-Matrix + Cholesky decomp.... done (  0.0 sec)
Calculating Nuclear repulsion               ... done (  0.0 sec) ENN=    709.336856418048 Eh

SHARK setup successfully completed in   0.2 seconds

Maximum memory used throughout the entire GTOINT-calculation: 12.1 MB


           ************************************************************
           *        Program running with 8 parallel MPI-processes     *
           *              working on a common directory               *
           ************************************************************
-------------------------------------------------------------------------------
                                 ORCA SCF
-------------------------------------------------------------------------------

------------
SCF SETTINGS
------------
Hamiltonian:
 Density Functional     Method          .... DFT(GTOs)
 Exchange Functional    Exchange        .... PBE
   PBE kappa parameter   XKappa         ....  1.024500
   PBE mue parameter    XMuePBE         ....  0.123457
 Correlation Functional Correlation     .... PBE
   PBE beta parameter  CBetaPBE         ....  0.030000
 LDA part of GGA corr.  LDAOpt          .... PW91-LDA
 Gradients option       PostSCFGGA      .... off
 Hybrid DFT is turned on
   Fraction HF Exchange ScalHFX         ....  0.420000
   Scaling of DF-GGA-X  ScalDFX         ....  0.580000
   Scaling of DF-GGA-C  ScalDFC         ....  1.000000
   Scaling of DF-LDA-C  ScalLDAC        ....  1.000000
   Perturbative correction              ....  0.000000
   Density functional embedding theory  .... OFF
 RI-approximation to the Coulomb term is turned on
   Number of AuxJ basis functions       .... 453
   RIJ-ON(X) (HFX calculated with O(N)) .... on
   Number of AuxJ basis functions       .... 453
   RIJ-COSX (HFX calculated with COS-X)).... on


General Settings:
 Integral files         IntName         .... PBEh_3c_opt___C3H9GeNOS
 Hartree-Fock type      HFTyp           .... RHF
 Total Charge           Charge          ....    0
 Multiplicity           Mult            ....    1
 Number of Electrons    NEL             ....   90
 Basis Dimension        Dim             ....  143
 Nuclear Repulsion      ENuc            ....    709.3368564180 Eh

Convergence Acceleration:
 DIIS                   CNVDIIS         .... on
   Start iteration      DIISMaxIt       ....    12
   Startup error        DIISStart       ....  0.200000
   # of expansion vecs  DIISMaxEq       ....     5
   Bias factor          DIISBfac        ....   1.050
   Max. coefficient     DIISMaxC        ....  10.000
 Trust-Rad. Augm. Hess. CNVTRAH         .... auto
   Auto Start mean grad. ratio tolernc. ....  1.125000
   Auto Start start iteration           ....    20
   Auto Start num. interpolation iter.  ....    10
   Max. Number of Micro iterations      ....    16
   Max. Number of Macro iterations      .... Maxiter - #DIIS iter
   Number of Davidson start vectors     ....     2
   Converg. threshold I  (grad. norm)   ....   1.000e-05
   Converg. threshold II (energy diff.) ....   1.000e-08
   Grad. Scal. Fac. for Micro threshold ....   0.100
   Minimum threshold for Micro iter.    ....   0.010
   NR start threshold (gradient norm)   ....   0.001
   Initial trust radius                 ....   0.400
   Minimum AH scaling param. (alpha)    ....   1.000
   Maximum AH scaling param. (alpha)    .... 1000.000
   Orbital update algorithm             .... Taylor
   White noise on init. David. guess    .... on
   Maximum white noise                  ....   0.010
   Quad. conv. algorithm                .... NR
   COSX micro iterations for RIJONX calc.... off
 SOSCF                  CNVSOSCF        .... on
   Start iteration      SOSCFMaxIt      ....   150
   Startup grad/error   SOSCFStart      ....  0.003300
 Level Shifting         CNVShift        .... on
   Level shift para.    LevelShift      ....    0.2500
   Turn off err/grad.   ShiftErr        ....    0.0010
 Zerner damping         CNVZerner       .... off
 Static damping         CNVDamp         .... on
   Fraction old density DampFac         ....    0.7000
   Max. Damping (<1)    DampMax         ....    0.9800
   Min. Damping (>=0)   DampMin         ....    0.0000
   Turn off err/grad.   DampErr         ....    0.1000
 Fernandez-Rico         CNVRico         .... off

SCF Procedure:
 Maximum # iterations   MaxIter         ....   125
 SCF integral mode      SCFMode         .... Direct
   Integral package                     .... SHARK and LIBINT hybrid scheme
 Reset frequency        DirectResetFreq ....    20
 Integral Threshold     Thresh          ....  2.500e-11 Eh
 Primitive CutOff       TCut            ....  2.500e-12 Eh

Convergence Tolerance:
 Convergence Check Mode ConvCheckMode   .... Total+1el-Energy
 Convergence forced     ConvForced      .... 0
 Energy Change          TolE            ....  1.000e-08 Eh
 1-El. energy change                    ....  1.000e-05 Eh
 Orbital Gradient       TolG            ....  1.000e-05
 Orbital Rotation angle TolX            ....  1.000e-05
 DIIS Error             TolErr          ....  5.000e-07


Diagonalization of the overlap matrix:
Smallest eigenvalue                        ... 6.577e-03
Time for diagonalization                   ...    0.003 sec
Threshold for overlap eigenvalues          ... 1.000e-08
Number of eigenvalues below threshold      ... 0
Time for construction of square roots      ...    0.002 sec
Total time needed                          ...    0.006 sec

--------------------------------
INITIAL GUESS: MINIMAL BASIS EHT
--------------------------------
The minimal basis has 61 functions
EHT matrix was diagonalized
Basis set overlap was calculated now projecting the orbitals
Using GuessMode=FMatrix for the initial guess
C*T matrix was formed
Effective Fockian was calculated
Effective Fockian was diagonalized
Initial density was built
                      ------------------
                      INITIAL GUESS DONE
                      ------------------
-------------------
DFT GRID GENERATION
-------------------

General Integration Accuracy     IntAcc      ... 4.388
Radial Grid Type                 RadialGrid  ... OptM3 with GC (2021)
Angular Grid (max. ang.)         AngularGrid ... 4 (Lebedev-302)
Angular grid pruning method      GridPruning ... 4 (adaptive)
Weight generation scheme         WeightScheme... Becke
Basis function cutoff            BFCut       ... 1.0000e-11
Integration weight cutoff        WCut        ... 1.0000e-14
Angular grids for H and He will be reduced by one unit
Partially contracted basis set               ... off
Rotationally invariant grid construction     ... off

Total number of grid points                  ...    77692
Total number of batches                      ...     1222
Average number of points per batch           ...       63
Average number of grid points per atom       ...     4856
Time for grid setup =    0.381 sec

--------------------
COSX GRID GENERATION
--------------------

GRIDX 1
-------
General Integration Accuracy     IntAcc      ... 3.816
Radial Grid Type                 RadialGrid  ... OptM3 with GC (2021)
Angular Grid (max. ang.)         AngularGrid ... 1 (Lebedev-50)
Angular grid pruning method      GridPruning ... 4 (adaptive)
Weight generation scheme         WeightScheme... Becke
Basis function cutoff            BFCut       ... 1.0000e-11
Integration weight cutoff        WCut        ... 1.0000e-14
Angular grids for H and He will be reduced by one unit
Partially contracted basis set               ... on
Rotationally invariant grid construction     ... off

Total number of grid points                  ...     9673
Total number of batches                      ...      160
Average number of points per batch           ...       60
Average number of grid points per atom       ...      605
UseSFitting                                  ... on

GRIDX 2
-------
General Integration Accuracy     IntAcc      ... 4.020
Radial Grid Type                 RadialGrid  ... OptM3 with GC (2021)
Angular Grid (max. ang.)         AngularGrid ... 2 (Lebedev-110)
Angular grid pruning method      GridPruning ... 4 (adaptive)
Weight generation scheme         WeightScheme... Becke
Basis function cutoff            BFCut       ... 1.0000e-11
Integration weight cutoff        WCut        ... 1.0000e-14
Angular grids for H and He will be reduced by one unit
Partially contracted basis set               ... on
Rotationally invariant grid construction     ... off

Total number of grid points                  ...    20539
Total number of batches                      ...      329
Average number of points per batch           ...       62
Average number of grid points per atom       ...     1284
UseSFitting                                  ... on

GRIDX 3
-------
General Integration Accuracy     IntAcc      ... 4.338
Radial Grid Type                 RadialGrid  ... OptM3 with GC (2021)
Angular Grid (max. ang.)         AngularGrid ... 3 (Lebedev-194)
Angular grid pruning method      GridPruning ... 4 (adaptive)
Weight generation scheme         WeightScheme... Becke
Basis function cutoff            BFCut       ... 1.0000e-11
Integration weight cutoff        WCut        ... 1.0000e-14
Angular grids for H and He will be reduced by one unit
Partially contracted basis set               ... on
Rotationally invariant grid construction     ... off

Total number of grid points                  ...    45708
Total number of batches                      ...      722
Average number of points per batch           ...       63
Average number of grid points per atom       ...     2857
UseSFitting                                  ... on

Time for X-Grid setup             =    0.378 sec

--------------
SCF ITERATIONS
--------------
ITER       Energy         Delta-E        Max-DP      RMS-DP      [F,P]     Damp
               ***  Starting incremental Fock matrix formation  ***
  0  -2719.3850431561   0.000000000000 0.24008212  0.00804355  1.6267956 0.7000
  1  -2720.6840392586  -1.298996102574 0.17845538  0.00463127  0.7923848 0.7000
  2  -2721.3910507421  -0.707011483477 0.14495186  0.00277139  0.4045896 0.7000
  3  -2721.8595448809  -0.468494138766 0.09757516  0.00177981  0.2330319 0.7000
                               ***Turning on DIIS***
  4  -2722.1849906768  -0.325445795921 0.06189567  0.00120837  0.1623077 0.7000
  5  -2722.4127985974  -0.227807920617 0.04054481  0.00088054  0.1131864 0.7000
  6  -2722.5725379399  -0.159739342542 0.10367609  0.00217121  0.0792775 0.0000
                      *** Initiating the SOSCF procedure ***
                           *** Shutting down DIIS ***
                      *** Re-Reading the Fockian *** 
                      *** Removing any level shift *** 
ITER      Energy       Delta-E        Grad      Rot      Max-DP    RMS-DP
  7  -2722.94708452  -0.3745465843  0.001383  0.001383  0.008018  0.000170
               *** Restarting incremental Fock matrix formation ***
  8  -2722.94699051   0.0000940180  0.000626  0.001822  0.004178  0.000121
  9  -2722.94701702  -0.0000265100  0.000332  0.001161  0.002293  0.000073
 10  -2722.94702064  -0.0000036259  0.000189  0.000293  0.000563  0.000024
 11  -2722.94702209  -0.0000014493  0.000063  0.000115  0.000519  0.000011
 12  -2722.94702221  -0.0000001176  0.000039  0.000069  0.000283  0.000006
 13  -2722.94702229  -0.0000000812  0.000019  0.000010  0.000022  0.000001
 14  -2722.94702229   0.0000000029  0.000015  0.000006  0.000015  0.000000
                  ***Gradient check signals convergence***
              ***Rediagonalizing the Fockian in SOSCF/NRSCF***

               *****************************************************
               *                     SUCCESS                       *
               *           SCF CONVERGED AFTER  15 CYCLES          *
               *****************************************************

Old exchange energy                            =    -57.172033410 Eh
New exchange energy                            =    -57.172103197 Eh
Exchange energy change after final integration =     -0.000069787 Eh
Total energy after final integration           =  -2722.947092082 Eh
Final COS-X integration done in                =     1.198 sec

----------------
TOTAL SCF ENERGY
----------------

Total Energy       :        -2722.94709208 Eh          -74095.15730 eV

Components:
Nuclear Repulsion  :          709.33685642 Eh           19302.03716 eV
Electronic Energy  :        -3432.28394850 Eh          -93397.19446 eV
One Electron Energy:        -5196.20568834 Eh         -141395.94521 eV
Two Electron Energy:         1763.92173984 Eh           47998.75075 eV
Max COSX asymmetry :            0.00000725 Eh               0.00020 eV

Virial components:
Potential Energy   :        -5441.59811203 Eh         -148073.41254 eV
Kinetic Energy     :         2718.65101995 Eh           73978.25523 eV
Virial Ratio       :            2.00158022


DFT components:
N(Alpha)           :       45.000022283425 electrons
N(Beta)            :       45.000022283425 electrons
N(Total)           :       90.000044566850 electrons
E(X)               :      -76.624474708110 Eh       
E(C)               :       -4.655834842815 Eh       
E(XC)              :      -81.280309550925 Eh       
DFET-embed. en.    :        0.000000000000 Eh       

---------------
SCF CONVERGENCE
---------------

  Last Energy change         ...   -7.7716e-09  Tolerance :   1.0000e-08
  Last MAX-Density change    ...    4.4409e-15  Tolerance :   1.0000e-07
  Last RMS-Density change    ...    9.6698e-17  Tolerance :   5.0000e-09
  Last Orbital Gradient      ...    6.7462e-07  Tolerance :   1.0000e-05
  Last Orbital Rotation      ...    8.5115e-07  Tolerance :   1.0000e-05

             **** THE GBW FILE WAS UPDATED (PBEh_3c_opt___C3H9GeNOS.gbw) ****
             **** DENSITY PBEh_3c_opt___C3H9GeNOS.scfp WAS UPDATED ****
             **** ENERGY FILE WAS UPDATED (PBEh_3c_opt___C3H9GeNOS.en.tmp) ****
             **** THE GBW FILE WAS UPDATED (PBEh_3c_opt___C3H9GeNOS.gbw) ****
             **** DENSITY PBEh_3c_opt___C3H9GeNOS.scfp WAS UPDATED ****
----------------
ORBITAL ENERGIES
----------------

  NO   OCC          E(Eh)            E(eV) 
   0   2.0000    -400.293118    -10892.5295 
   1   2.0000     -89.580413     -2437.6070 
   2   2.0000     -50.423730     -1372.0994 
   3   2.0000     -44.838654     -1220.1218 
   4   2.0000     -44.838185     -1220.1090 
   5   2.0000     -44.837131     -1220.0804 
   6   2.0000     -19.485167      -530.2183 
   7   2.0000     -14.630675      -398.1209 
   8   2.0000     -10.482489      -285.2430 
   9   2.0000     -10.481716      -285.2220 
  10   2.0000     -10.467960      -284.8477 
  11   2.0000      -8.220265      -223.6848 
  12   2.0000      -6.523245      -177.5065 
  13   2.0000      -6.110877      -166.2854 
  14   2.0000      -6.107961      -166.2061 
  15   2.0000      -6.103428      -166.0827 
  16   2.0000      -4.644477      -126.3826 
  17   2.0000      -4.643185      -126.3475 
  18   2.0000      -4.641779      -126.3092 
  19   2.0000      -1.376774       -37.4639 
  20   2.0000      -1.373054       -37.3627 
  21   2.0000      -1.371312       -37.3153 
  22   2.0000      -1.369759       -37.2730 
  23   2.0000      -1.368705       -37.2444 
  24   2.0000      -1.111112       -30.2349 
  25   2.0000      -0.968899       -26.3651 
  26   2.0000      -0.867847       -23.6153 
  27   2.0000      -0.789485       -21.4830 
  28   2.0000      -0.717029       -19.5113 
  29   2.0000      -0.681626       -18.5480 
  30   2.0000      -0.600259       -16.3339 
  31   2.0000      -0.553600       -15.0642 
  32   2.0000      -0.541438       -14.7333 
  33   2.0000      -0.503091       -13.6898 
  34   2.0000      -0.493559       -13.4304 
  35   2.0000      -0.483981       -13.1698 
  36   2.0000      -0.466457       -12.6930 
  37   2.0000      -0.435641       -11.8544 
  38   2.0000      -0.431146       -11.7321 
  39   2.0000      -0.391777       -10.6608 
  40   2.0000      -0.372653       -10.1404 
  41   2.0000      -0.355385        -9.6705 
  42   2.0000      -0.317860        -8.6494 
  43   2.0000      -0.296784        -8.0759 
  44   2.0000      -0.285702        -7.7744 
  45   0.0000       0.027205         0.7403 
  46   0.0000       0.049930         1.3587 
  47   0.0000       0.082651         2.2490 
  48   0.0000       0.109020         2.9666 
  49   0.0000       0.137545         3.7428 
  50   0.0000       0.141435         3.8486 
  51   0.0000       0.169565         4.6141 
  52   0.0000       0.176603         4.8056 
  53   0.0000       0.191316         5.2060 
  54   0.0000       0.198270         5.3952 
  55   0.0000       0.202948         5.5225 
  56   0.0000       0.214433         5.8350 
  57   0.0000       0.225425         6.1341 
  58   0.0000       0.248932         6.7738 
  59   0.0000       0.261962         7.1284 
  60   0.0000       0.293938         7.9985 
  61   0.0000       0.302444         8.2299 
  62   0.0000       0.372548        10.1375 
  63   0.0000       0.391867        10.6633 
  64   0.0000       0.403573        10.9818 
  65   0.0000       0.422085        11.4855 
  66   0.0000       0.466893        12.7048 
  67   0.0000       0.497618        13.5409 
  68   0.0000       0.502356        13.6698 
  69   0.0000       0.527124        14.3438 
  70   0.0000       0.548013        14.9122 
  71   0.0000       0.566185        15.4067 
  72   0.0000       0.573046        15.5934 
  73   0.0000       0.589535        16.0421 
  74   0.0000       0.601887        16.3782 
  75   0.0000       0.624061        16.9815 
  76   0.0000       0.678766        18.4702 
  77   0.0000       0.691713        18.8225 
  78   0.0000       0.711288        19.3551 
  79   0.0000       0.739983        20.1360 
  80   0.0000       0.765568        20.8322 
  81   0.0000       0.785703        21.3801 
  82   0.0000       0.846393        23.0315 
  83   0.0000       0.852445        23.1962 
  84   0.0000       0.889652        24.2087 
  85   0.0000       0.898582        24.4516 
  86   0.0000       0.940593        25.5948 
  87   0.0000       0.973128        26.4801 
  88   0.0000       0.992438        27.0056 
  89   0.0000       1.002229        27.2720 
  90   0.0000       1.012901        27.5624 
  91   0.0000       1.026676        27.9373 
  92   0.0000       1.034981        28.1633 
  93   0.0000       1.045759        28.4566 
  94   0.0000       1.065137        28.9839 
  95   0.0000       1.070434        29.1280 
  96   0.0000       1.082305        29.4510 
  97   0.0000       1.095350        29.8060 
  98   0.0000       1.166068        31.7303 
  99   0.0000       1.213167        33.0120 
 100   0.0000       1.227025        33.3891 
 101   0.0000       1.254282        34.1307 
 102   0.0000       1.287028        35.0218 
 103   0.0000       1.320358        35.9288 
 104   0.0000       1.426064        38.8052 
 105   0.0000       1.471377        40.0382 
 106   0.0000       1.513494        41.1843 
 107   0.0000       1.548961        42.1494 
 108   0.0000       1.724748        46.9328 
 109   0.0000       1.778527        48.3962 
 110   0.0000       1.794494        48.8307 
 111   0.0000       1.807199        49.1764 
 112   0.0000       1.883844        51.2620 
 113   0.0000       1.897997        51.6471 
 114   0.0000       1.942764        52.8653 
 115   0.0000       2.004963        54.5578 
 116   0.0000       2.035174        55.3799 
 117   0.0000       2.075850        56.4867 
 118   0.0000       2.104875        57.2765 
 119   0.0000       2.156580        58.6835 
 120   0.0000       2.166051        58.9412 
 121   0.0000       2.189361        59.5756 
 122   0.0000       2.221967        60.4628 
 123   0.0000       2.251520        61.2670 
 124   0.0000       2.272849        61.8474 
 125   0.0000       2.337251        63.5998 
 126   0.0000       2.369780        64.4850 
 127   0.0000       2.466469        67.1160 
 128   0.0000       2.486395        67.6582 
 129   0.0000       2.565964        69.8234 
 130   0.0000       2.571192        69.9657 
 131   0.0000       2.612877        71.1000 
 132   0.0000       2.646831        72.0239 
 133   0.0000       2.747204        74.7552 
 134   0.0000       2.786111        75.8139 
 135   0.0000       2.818218        76.6876 
 136   0.0000       2.896159        78.8085 
 137   0.0000       2.978776        81.0566 
 138   0.0000      13.661290       371.7426 
 139   0.0000      13.721990       373.3943 
 140   0.0000      14.002927       381.0390 
 141   0.0000      19.238959       523.5187 
 142   0.0000      25.646767       697.8840 

                    ********************************
                    * MULLIKEN POPULATION ANALYSIS *
                    ********************************

-----------------------
MULLIKEN ATOMIC CHARGES
-----------------------
   0 N :   -0.698879
   1 C :   -0.332382
   2 C :   -0.171565
   3 O :   -0.592151
   4 Ge:    0.741851
   5 S :   -0.219480
   6 C :   -0.742311
   7 H :    0.328090
   8 H :    0.246597
   9 H :    0.224851
  10 H :    0.213033
  11 H :    0.197091
  12 H :    0.025357
  13 H :    0.242967
  14 H :    0.271680
  15 H :    0.265249
Sum of atomic charges:    0.0000000

--------------------------------
MULLIKEN REDUCED ORBITAL CHARGES
--------------------------------
  0 N s       :     3.662290  s :     3.662290
      pz      :     1.569278  p :     4.004543
      px      :     1.210441
      py      :     1.224824
      dz2     :     0.008266  d :     0.032046
      dxz     :     0.008617
      dyz     :     0.003203
      dx2y2   :     0.007361
      dxy     :     0.004599
  1 C s       :     3.313051  s :     3.313051
      pz      :     0.845764  p :     2.961532
      px      :     0.945787
      py      :     1.169981
      dz2     :     0.017404  d :     0.057798
      dxz     :     0.014180
      dyz     :     0.004619
      dx2y2   :     0.010171
      dxy     :     0.011425
  2 C s       :     3.269487  s :     3.269487
      pz      :     1.037990  p :     2.831569
      px      :     0.942147
      py      :     0.851432
      dz2     :     0.011817  d :     0.070509
      dxz     :     0.017738
      dyz     :     0.006209
      dx2y2   :     0.014295
      dxy     :     0.020450
  3 O s       :     3.829255  s :     3.829255
      pz      :     1.605298  p :     4.737992
      px      :     1.598964
      py      :     1.533729
      dz2     :     0.006282  d :     0.024905
      dxz     :     0.004062
      dyz     :     0.004088
      dx2y2   :     0.003979
      dxy     :     0.006494
  4 Ges       :     7.167495  s :     7.167495
      pz      :     4.531541  p :    13.810559
      px      :     4.575928
      py      :     4.703090
      dz2     :     2.049608  d :    10.280094
      dxz     :     2.059006
      dyz     :     2.059425
      dx2y2   :     2.059363
      dxy     :     2.052692
  5 S s       :     5.836843  s :     5.836843
      pz      :     3.669473  p :    10.320475
      px      :     3.181484
      py      :     3.469518
      dz2     :     0.008421  d :     0.062161
      dxz     :     0.011118
      dyz     :     0.009722
      dx2y2   :     0.008190
      dxy     :     0.024710
  6 C s       :     3.445175  s :     3.445175
      pz      :     1.104204  p :     3.259851
      px      :     1.071240
      py      :     1.084407
      dz2     :     0.011283  d :     0.037284
      dxz     :     0.005766
      dyz     :     0.004704
      dx2y2   :     0.009397
      dxy     :     0.006134
  7 H s       :     0.671910  s :     0.671910
  8 H s       :     0.753403  s :     0.753403
  9 H s       :     0.775149  s :     0.775149
 10 H s       :     0.786967  s :     0.786967
 11 H s       :     0.802909  s :     0.802909
 12 H s       :     0.974643  s :     0.974643
 13 H s       :     0.757033  s :     0.757033
 14 H s       :     0.728320  s :     0.728320
 15 H s       :     0.734751  s :     0.734751


                     *******************************
                     * LOEWDIN POPULATION ANALYSIS *
                     *******************************

----------------------
LOEWDIN ATOMIC CHARGES
----------------------
   0 N :   -0.415995
   1 C :   -0.172439
   2 C :   -0.097161
   3 O :   -0.337005
   4 Ge:    0.224731
   5 S :    0.065461
   6 C :   -0.452686
   7 H :    0.240347
   8 H :    0.139379
   9 H :    0.122782
  10 H :    0.118779
  11 H :    0.114053
  12 H :    0.021196
  13 H :    0.136078
  14 H :    0.148747
  15 H :    0.143734

-------------------------------
LOEWDIN REDUCED ORBITAL CHARGES
-------------------------------
  0 N s       :     3.263799  s :     3.263799
      pz      :     1.576254  p :     4.091698
      px      :     1.270993
      py      :     1.244451
      dz2     :     0.013806  d :     0.060499
      dxz     :     0.016576
      dyz     :     0.005493
      dx2y2   :     0.014010
      dxy     :     0.010615
  1 C s       :     2.921904  s :     2.921904
      pz      :     0.988934  p :     3.132251
      px      :     1.030142
      py      :     1.113174
      dz2     :     0.036667  d :     0.118284
      dxz     :     0.033296
      dyz     :     0.009195
      dx2y2   :     0.018350
      dxy     :     0.020776
  2 C s       :     2.918665  s :     2.918665
      pz      :     1.091777  p :     3.030535
      px      :     0.995714
      py      :     0.943044
      dz2     :     0.025672  d :     0.147961
      dxz     :     0.037515
      dyz     :     0.012391
      dx2y2   :     0.029614
      dxy     :     0.042768
  3 O s       :     3.499435  s :     3.499435
      pz      :     1.616543  p :     4.787815
      px      :     1.602160
      py      :     1.569113
      dz2     :     0.012167  d :     0.049754
      dxz     :     0.008602
      dyz     :     0.006925
      dx2y2   :     0.009068
      dxy     :     0.012992
  4 Ges       :     7.046180  s :     7.046180
      pz      :     4.622953  p :    14.087276
      px      :     4.677389
      py      :     4.786934
      dz2     :     2.133013  d :    10.641814
      dxz     :     2.141324
      dyz     :     2.120437
      dx2y2   :     2.115587
      dxy     :     2.131452
  5 S s       :     5.564625  s :     5.564625
      pz      :     3.640368  p :    10.292794
      px      :     3.158814
      py      :     3.493612
      dz2     :     0.010324  d :     0.077120
      dxz     :     0.014482
      dyz     :     0.011209
      dx2y2   :     0.010381
      dxy     :     0.030725
  6 C s       :     3.028015  s :     3.028015
      pz      :     1.136108  p :     3.359088
      px      :     1.096979
      py      :     1.126002
      dz2     :     0.019744  d :     0.065583
      dxz     :     0.009926
      dyz     :     0.008257
      dx2y2   :     0.016213
      dxy     :     0.011443
  7 H s       :     0.759653  s :     0.759653
  8 H s       :     0.860621  s :     0.860621
  9 H s       :     0.877218  s :     0.877218
 10 H s       :     0.881221  s :     0.881221
 11 H s       :     0.885947  s :     0.885947
 12 H s       :     0.978804  s :     0.978804
 13 H s       :     0.863922  s :     0.863922
 14 H s       :     0.851253  s :     0.851253
 15 H s       :     0.856266  s :     0.856266


                      *****************************
                      * MAYER POPULATION ANALYSIS *
                      *****************************

  NA   - Mulliken gross atomic population
  ZA   - Total nuclear charge
  QA   - Mulliken gross atomic charge
  VA   - Mayer's total valence
  BVA  - Mayer's bonded valence
  FA   - Mayer's free valence

  ATOM       NA         ZA         QA         VA         BVA        FA
  0 N      7.6989     7.0000    -0.6989     2.8478     2.8478    -0.0000
  1 C      6.3324     6.0000    -0.3324     3.7054     3.7054    -0.0000
  2 C      6.1716     6.0000    -0.1716     3.6872     3.6872     0.0000
  3 O      8.5922     8.0000    -0.5922     1.9679     1.9679    -0.0000
  4 Ge    31.2581    32.0000     0.7419     3.9404     3.9404     0.0000
  5 S     16.2195    16.0000    -0.2195     2.1209     2.1209     0.0000
  6 C      6.7423     6.0000    -0.7423     3.7081     3.7081     0.0000
  7 H      0.6719     1.0000     0.3281     0.8550     0.8550    -0.0000
  8 H      0.7534     1.0000     0.2466     0.8978     0.8978     0.0000
  9 H      0.7751     1.0000     0.2249     0.9133     0.9133     0.0000
 10 H      0.7870     1.0000     0.2130     0.9138     0.9138     0.0000
 11 H      0.8029     1.0000     0.1971     0.9136     0.9136    -0.0000
 12 H      0.9746     1.0000     0.0254     0.9794     0.9794     0.0000
 13 H      0.7570     1.0000     0.2430     0.8939     0.8939     0.0000
 14 H      0.7283     1.0000     0.2717     0.8926     0.8926     0.0000
 15 H      0.7348     1.0000     0.2652     0.8833     0.8833     0.0000

  Mayer bond orders larger than 0.100000
B(  0-N ,  1-C ) :   0.9669 B(  0-N ,  4-Ge) :   0.9952 B(  0-N ,  7-H ) :   0.8247 
B(  1-C ,  2-C ) :   0.9282 B(  1-C ,  8-H ) :   0.8951 B(  1-C ,  9-H ) :   0.9086 
B(  2-C ,  3-O ) :   0.9576 B(  2-C , 10-H ) :   0.9098 B(  2-C , 11-H ) :   0.8979 
B(  3-O ,  4-Ge) :   0.9111 B(  4-Ge,  5-S ) :   1.0238 B(  4-Ge, 12-H ) :   0.8973 
B(  5-S ,  6-C ) :   0.9914 B(  6-C , 13-H ) :   0.9023 B(  6-C , 14-H ) :   0.8953 
B(  6-C , 15-H ) :   0.8925 

-------
TIMINGS
-------

Total SCF time: 0 days 0 hours 0 min 11 sec 

Total time                  ....      11.357 sec
Sum of individual times     ....      11.217 sec  ( 98.8%)

Fock matrix formation       ....      10.322 sec  ( 90.9%)
  Split-RI-J                ....       1.062 sec  ( 10.3% of F)
  Chain of spheres X        ....       7.511 sec  ( 72.8% of F)
  XC integration            ....       1.713 sec  ( 16.6% of F)
    Basis function eval.    ....       0.671 sec  ( 39.2% of XC)
    Density eval.           ....       0.349 sec  ( 20.4% of XC)
    XC-Functional eval.     ....       0.185 sec  ( 10.8% of XC)
    XC-Potential eval.      ....       0.370 sec  ( 21.6% of XC)
Diagonalization             ....       0.045 sec  (  0.4%)
Density matrix formation    ....       0.006 sec  (  0.1%)
Population analysis         ....       0.005 sec  (  0.0%)
Initial guess               ....       0.016 sec  (  0.1%)
Orbital Transformation      ....       0.000 sec  (  0.0%)
Orbital Orthonormalization  ....       0.000 sec  (  0.0%)
DIIS solution               ....       0.026 sec  (  0.2%)
SOSCF solution              ....       0.039 sec  (  0.3%)
Grid generation             ....       0.760 sec  (  6.7%)

Maximum memory used throughout the entire SCF-calculation: 51.8 MB


-------------------------------------------------------------------------------
                          DFT DISPERSION CORRECTION                            
                                                                               
                              DFTD3 V3.1  Rev 1                                
                          USING Becke-Johnson damping                          
-------------------------------------------------------------------------------
The PBEh-3c composite method is recognized
Using three-body term ABC
Active option DFTDOPT                   ...         4   

molecular C6(AA) [au] = 3610.184073 


            DFT-D V3
 parameters
 s6 scaling factor         :     1.0000 
 a1 scaling factor         :     0.4860 
 s8 scaling factor         :     0.0000 
 a2 scaling factor         :     4.5000 
 Damping factor alpha9(ATM):    16.0000 
 ad hoc parameters k1-k3   :    16.0000     1.3333    -4.0000 

 Edisp/kcal,au: -5.167334698513  -0.008234671126 
 E6   /kcal   :  -5.184210262 
 E8   /kcal   :  -0.000000000 
 E6(ABC)      :   0.016875563 
 % E8         :   0.000000000 
 % E6(ABC)    :  -0.326581576 

-------------------------   ----------------
Dispersion correction           -0.008234671
-------------------------   ----------------

------------------   -----------------
gCP correction             0.039660844
------------------   -----------------

-------------------------   --------------------
FINAL SINGLE POINT ENERGY     -2722.915665909681
-------------------------   --------------------



           ************************************************************
           *        Program running with 8 parallel MPI-processes     *
           *              working on a common directory               *
           ************************************************************
------------------------------------------------------------------------------
                         ORCA SCF GRADIENT CALCULATION
------------------------------------------------------------------------------

 ... reading COSX grid (gridx3)
Gradient of the Kohn-Sham DFT energy:
Kohn-Sham wavefunction type      ... RKS
Hartree-Fock exchange scaling    ...    0.420
Number of operators              ...    1
Number of atoms                  ...   16
Basis set dimensions             ...  143
Integral neglect threshold       ... 2.5e-11
Integral primitive cutoff        ... 2.5e-12
SHARK Integral package           ... ON

Nuc. rep. gradient       (SHARK) ... done (  0.0 sec)
HCore & Overlap gradient (SHARK) ... done (  0.1 sec)
RI-J gradient            (SHARK) ... done (  0.4 sec)
COSX-gradient                    ... done (  1.5 sec)
Exchange-correlation gradient    ... done
Dispersion correction            ... done
gCP correction                   ... done

------------------
CARTESIAN GRADIENT
------------------

   1   N   :   -0.018489934   -0.003623409   -0.000122083
   2   C   :   -0.022192754   -0.016716552   -0.004800275
   3   C   :    0.017815064    0.023356515    0.004349284
   4   O   :   -0.013361399   -0.000725516    0.009340380
   5   Ge  :    0.000949787    0.008513434    0.001499402
   6   S   :   -0.006975035   -0.022359997    0.011077650
   7   C   :    0.027470280    0.043105009   -0.011104212
   8   H   :    0.008243927    0.019473460    0.003170040
   9   H   :    0.014025966   -0.011162761    0.000130285
  10   H   :    0.006927955    0.001228318    0.006721274
  11   H   :   -0.007383610   -0.002928882   -0.013571670
  12   H   :    0.014255309   -0.011778997   -0.010236790
  13   H   :   -0.001613900    0.002254151   -0.002507369
  14   H   :   -0.009166431   -0.020709200   -0.008713981
  15   H   :    0.006331806   -0.004599733    0.000059229
  16   H   :   -0.016129926   -0.002854135    0.014120295

Difference to translation invariance:
           :    0.0007071036    0.0004717049   -0.0005885397

Difference to rotation invariance:
           :    0.0013433722    0.0021811461   -0.0016658987

Norm of the cartesian gradient     ...    0.0920875679
RMS gradient                       ...    0.0132916955
MAX gradient                       ...    0.0431050087

-------
TIMINGS
-------

Total SCF gradient time            ...        2.863 sec

One electron gradient       ....       0.058 sec  (  2.0%)
RI-J Coulomb gradient       ....       0.409 sec  ( 14.3%)
COSX gradient               ....       1.526 sec  ( 53.3%)
XC gradient                 ....       0.568 sec  ( 19.8%)

Maximum memory used throughout the entire SCFGRAD-calculation: 39.9 MB
------------------------------------------------------------------------------
                         ORCA GEOMETRY RELAXATION STEP
------------------------------------------------------------------------------

Reading the OPT-File                    .... done
Getting information on internals        .... done
Copying old internal coords+grads       .... done
Making the new internal coordinates     .... (new redundants).... done
Validating the new internal coordinates .... (new redundants).... done
Calculating the B-matrix                .... done
Calculating the G,G- and P matrices     .... done
Transforming gradient to internals      .... done
Projecting the internal gradient        .... done
Number of atoms                         ....  16
Number of internal coordinates          .... 146
Current Energy                          .... -2722.915665910 Eh
Current gradient norm                   ....     0.092087568 Eh/bohr
Maximum allowed component of the step   ....  0.300
Current trust radius                    ....  0.300
Evaluating the initial hessian          ....  (Almloef) done
Projecting the Hessian                  .... done
Forming the augmented Hessian           .... done
Diagonalizing the augmented Hessian     .... done
Last element of RFO vector              ....  0.907241344
Lowest eigenvalues of augmented Hessian:
 -0.019255202  0.002485941  0.003525152  0.012320565  0.012946190
Length of the computed step             ....  0.463614720
Warning: the length of the step is outside the trust region - taking restricted step instead
The input lambda is                     ....    -0.019255
   iter:   1  x=   -0.035427  g=    7.725902 f(x)=     0.124939
   iter:   2  x=   -0.048311  g=    3.314493 f(x)=     0.042706
   iter:   3  x=   -0.053121  g=    1.988668 f(x)=     0.009564
   iter:   4  x=   -0.053572  g=    1.684656 f(x)=     0.000760
   iter:   5  x=   -0.053575  g=    1.659609 f(x)=     0.000006
   iter:   6  x=   -0.053575  g=    1.659422 f(x)=     0.000000
   iter:   7  x=   -0.053575  g=    1.659422 f(x)=     0.000000
The output lambda is                    ....    -0.053575 (7 iterations)
The final length of the internal step   ....  0.300000000
Converting the step to cartesian space:
 Initial RMS(Int)=    0.0248281767
Transforming coordinates:
 Iter   0:  RMS(Cart)=    0.0380325370 RMS(Int)=    0.5171143374
 Iter   1:  RMS(Cart)=    0.0009066998 RMS(Int)=    0.0004099085
 Iter   2:  RMS(Cart)=    0.0000240173 RMS(Int)=    0.0000157240
 Iter   3:  RMS(Cart)=    0.0000010803 RMS(Int)=    0.0000005531
 Iter   4:  RMS(Cart)=    0.0000000411 RMS(Int)=    0.0000000288
done
Storing new coordinates                 .... done

                                .--------------------.
          ----------------------|Geometry convergence|-------------------------
          Item                value                   Tolerance       Converged
          ---------------------------------------------------------------------
          RMS gradient        0.0051342361            0.0001000000      NO
          MAX gradient        0.0245643601            0.0003000000      NO
          RMS step            0.0248281767            0.0020000000      NO
          MAX step            0.0747764477            0.0040000000      NO
          ........................................................
          Max(Bonds)      0.0329      Max(Angles)    2.70
          Max(Dihed)        4.28      Max(Improp)    0.00
          ---------------------------------------------------------------------

The optimization has not yet converged - more geometry cycles are needed


    ---------------------------------------------------------------------------
                         Redundant Internal Coordinates
                            (Angstroem and degrees)

        Definition                    Value    dE/dq     Step     New-Value
    ----------------------------------------------------------------------------
     1. B(C   1,N   0)                1.4752 -0.003548  0.0049    1.4801   
     2. B(C   2,C   1)                1.5351 -0.003073  0.0047    1.5398   
     3. B(O   3,C   2)                1.4164 -0.006687  0.0083    1.4246   
     4. B(Ge  4,C   2)                2.4637 -0.008757  0.0250    2.4887   
     5. B(Ge  4,C   1)                2.5292 -0.000611  0.0111    2.5403   
     6. B(Ge  4,O   3)                1.8145  0.002888 -0.0022    1.8124   
     7. B(Ge  4,N   0)                1.8925  0.006490 -0.0064    1.8861   
     8. B(S   5,Ge  4)                2.1851 -0.002526  0.0019    2.1871   
     9. B(C   6,S   5)                1.8133 -0.004820  0.0062    1.8195   
    10. B(H   7,N   0)                1.0430  0.020873 -0.0253    1.0178   
    11. B(H   8,C   1)                1.1030  0.007825 -0.0104    1.0926   
    12. B(H   9,C   1)                1.0843 -0.005003  0.0063    1.0906   
    13. B(H  10,C   2)                1.0858 -0.005443  0.0069    1.0927   
    14. B(H  11,C   2)                1.0965 -0.000921  0.0012    1.0977   
    15. B(H  12,Ge  4)                1.5197 -0.000985  0.0009    1.5206   
    16. B(H  13,C   6)                1.1276  0.022809 -0.0329    1.0947   
    17. B(H  14,C   6)                1.0894  0.004229 -0.0054    1.0840   
    18. B(H  15,C   6)                1.1154  0.018566 -0.0257    1.0897   
    19. A(C   1,N   0,H   7)          108.96  0.001145   -0.37    108.59   
    20. A(Ge  4,N   0,H   7)          108.82 -0.000552    0.16    108.98   
    21. A(C   1,N   0,Ge  4)           96.57 -0.001702    0.68     97.26   
    22. A(H   8,C   1,H   9)          114.31  0.003950   -1.60    112.71   
    23. A(Ge  4,C   1,H   8)           85.64 -0.002485    1.42     87.06   
    24. A(Ge  4,C   1,H   9)          157.48 -0.001128   -0.13    157.35   
    25. A(N   0,C   1,Ge  4)           48.02  0.002377   -0.58     47.43   
    26. A(N   0,C   1,C   2)          104.48 -0.001780    1.22    105.70   
    27. A(C   2,C   1,Ge  4)           69.78 -0.002661    0.57     70.35   
    28. A(N   0,C   1,H   8)          107.23  0.000577   -0.24    106.99   
    29. A(N   0,C   1,H   9)          112.71 -0.003184    0.42    113.13   
    30. A(C   2,C   1,H   9)          111.73  0.001236    0.39    112.12   
    31. A(C   2,C   1,H   8)          105.66 -0.001184    0.01    105.67   
    32. A(C   1,C   2,Ge  4)           74.43  0.002775   -0.43     74.01   
    33. A(O   3,C   2,H  10)          111.83 -0.003055    0.31    112.14   
    34. A(C   1,C   2,H  10)          107.65 -0.003984    1.49    109.14   
    35. A(C   1,C   2,O   3)          103.37  0.003085    0.37    103.75   
    36. A(Ge  4,C   2,H  10)          156.52  0.000084   -0.50    156.02   
    37. A(H  10,C   2,H  11)          115.52  0.005993   -1.93    113.59   
    38. A(Ge  4,C   2,H  11)           84.01 -0.005845    2.10     86.11   
    39. A(O   3,C   2,H  11)          106.89 -0.002880    0.77    107.66   
    40. A(C   1,C   2,H  11)          110.93  0.000602   -0.81    110.12   
    41. A(O   3,C   2,Ge  4)           46.73  0.003435   -0.88     45.85   
    42. A(C   2,O   3,Ge  4)           98.63 -0.003360    1.17     99.80   
    43. A(N   0,Ge  4,S   5)          111.35  0.001597   -0.45    110.90   
    44. A(C   2,Ge  4,O   3)           34.64 -0.000074   -0.29     34.34   
    45. A(C   1,Ge  4,O   3)           61.92 -0.000786    0.28     62.20   
    46. A(N   0,Ge  4,O   3)           96.31 -0.001609    0.30     96.61   
    47. A(N   0,Ge  4,C   1)           35.41 -0.000675   -0.10     35.31   
    48. A(S   5,Ge  4,H  12)          115.05 -0.000251   -0.07    114.98   
    49. A(C   1,Ge  4,C   2)           35.78 -0.000114   -0.14     35.64   
    50. A(N   0,Ge  4,C   2)           64.69 -0.001353    0.39     65.08   
    51. A(C   1,Ge  4,H  12)          115.56 -0.000659    0.57    116.14   
    52. A(N   0,Ge  4,H  12)          111.97 -0.000249    0.21    112.18   
    53. A(O   3,Ge  4,S   5)          108.43 -0.000607    0.32    108.75   
    54. A(C   2,Ge  4,S   5)          105.90 -0.000282    0.53    106.43   
    55. A(C   2,Ge  4,H  12)          135.72  0.000646   -0.55    135.17   
    56. A(O   3,Ge  4,H  12)          112.16  0.000940   -0.25    111.91   
    57. A(C   1,Ge  4,S   5)          127.87  0.001103   -0.61    127.26   
    58. A(Ge  4,S   5,C   6)          108.74  0.024564   -2.64    106.10   
    59. A(H  14,C   6,H  15)          114.21  0.007455   -1.74    112.47   
    60. A(H  13,C   6,H  15)          105.74 -0.001779    1.13    106.87   
    61. A(S   5,C   6,H  15)          106.48 -0.013538    2.04    108.52   
    62. A(H  13,C   6,H  14)          109.34  0.002331   -0.50    108.84   
    63. A(S   5,C   6,H  14)          113.45  0.016619   -2.70    110.75   
    64. A(S   5,C   6,H  13)          107.12 -0.013817    2.30    109.42   
    65. D(H   9,C   1,N   0,H   7)     53.55  0.000433   -0.42     53.12   
    66. D(H   8,C   1,N   0,H   7)   -179.80  0.003737   -2.37   -182.17   
    67. D(H   9,C   1,N   0,Ge  4)    166.06 -0.000578   -0.06    166.00   
    68. D(C   2,C   1,N   0,H   7)    -67.96  0.001863   -1.93    -69.89   
    69. D(H   8,C   1,N   0,Ge  4)    -67.28  0.002726   -2.01    -69.29   
    70. D(C   2,C   1,N   0,Ge  4)     44.55  0.000852   -1.57     42.99   
    71. D(Ge  4,C   1,N   0,H   7)   -112.52  0.001011   -0.36   -112.87   
    72. D(H  10,C   2,C   1,H   9)     48.51  0.001220    0.61     49.12   
    73. D(H  11,C   2,C   1,N   0)     43.38 -0.008250    4.04     47.42   
    74. D(Ge  4,C   2,C   1,H   9)   -155.92  0.001634    0.06   -155.85   
    75. D(Ge  4,C   2,C   1,N   0)    -33.76 -0.002663    1.55    -32.21   
    76. D(H  11,C   2,C   1,Ge  4)     77.14 -0.005587    2.49     79.63   
    77. D(O   3,C   2,C   1,H   8)     42.10 -0.007376    3.54     45.64   
    78. D(H  10,C   2,C   1,N   0)    170.66 -0.003077    2.10    172.77   
    79. D(H  10,C   2,C   1,H   8)    -76.38 -0.003645    2.35    -74.03   
    80. D(H  10,C   2,C   1,Ge  4)   -155.58 -0.000414    0.55   -155.03   
    81. D(O   3,C   2,C   1,Ge  4)    -37.10 -0.004145    1.75    -35.35   
    82. D(Ge  4,C   2,C   1,H   8)     79.20 -0.003231    1.80     80.99   
    83. D(O   3,C   2,C   1,N   0)    -70.86 -0.006809    3.30    -67.56   
    84. D(H  11,C   2,C   1,H   8)    156.34 -0.008817    4.28    160.62   
    85. D(O   3,C   2,C   1,H   9)    166.98 -0.002511    1.81    168.79   
    86. D(H  11,C   2,C   1,H   9)    -78.77 -0.003952    2.55    -76.22   
    87. D(Ge  4,O   3,C   2,H  10)    168.48 -0.000328   -0.03    168.44   
    88. D(Ge  4,O   3,C   2,C   1)     52.95  0.004001   -2.12     50.82   
    89. D(Ge  4,O   3,C   2,H  11)    -64.18  0.003112   -1.71    -65.89   
    90. D(O   3,Ge  4,N   0,H   7)     99.27 -0.000621    0.69     99.96   
[...]
  12   2.0000      -6.515725      -177.3019 
  13   2.0000      -6.107726      -166.1997 
  14   2.0000      -6.105116      -166.1287 
  15   2.0000      -6.100483      -166.0026 
  16   2.0000      -4.636964      -126.1782 
  17   2.0000      -4.636340      -126.1612 
  18   2.0000      -4.634017      -126.0980 
  19   2.0000      -1.371063       -37.3085 
  20   2.0000      -1.365936       -37.1690 
  21   2.0000      -1.363896       -37.1135 
  22   2.0000      -1.362299       -37.0700 
  23   2.0000      -1.361604       -37.0511 
  24   2.0000      -1.104931       -30.0667 
  25   2.0000      -0.965019       -26.2595 
  26   2.0000      -0.864678       -23.5291 
  27   2.0000      -0.799933       -21.7673 
  28   2.0000      -0.715584       -19.4720 
  29   2.0000      -0.674869       -18.3641 
  30   2.0000      -0.605087       -16.4653 
  31   2.0000      -0.557327       -15.1656 
  32   2.0000      -0.539020       -14.6675 
  33   2.0000      -0.498257       -13.5583 
  34   2.0000      -0.491906       -13.3854 
  35   2.0000      -0.479108       -13.0372 
  36   2.0000      -0.458162       -12.4672 
  37   2.0000      -0.439075       -11.9478 
  38   2.0000      -0.429612       -11.6903 
  39   2.0000      -0.402554       -10.9540 
  40   2.0000      -0.367344        -9.9959 
  41   2.0000      -0.360031        -9.7969 
  42   2.0000      -0.317004        -8.6261 
  43   2.0000      -0.288947        -7.8627 
  44   2.0000      -0.282779        -7.6948 
  45   0.0000       0.050485         1.3738 
  46   0.0000       0.065128         1.7722 
  47   0.0000       0.071562         1.9473 
  48   0.0000       0.107884         2.9357 
  49   0.0000       0.138519         3.7693 
  50   0.0000       0.157345         4.2816 
  51   0.0000       0.178651         4.8613 
  52   0.0000       0.180801         4.9198 
  53   0.0000       0.198971         5.4143 
  54   0.0000       0.203991         5.5509 
  55   0.0000       0.211428         5.7532 
  56   0.0000       0.219699         5.9783 
  57   0.0000       0.234611         6.3841 
  58   0.0000       0.258457         7.0330 
  59   0.0000       0.277764         7.5583 
  60   0.0000       0.286378         7.7927 
  61   0.0000       0.306566         8.3421 
  62   0.0000       0.367859        10.0100 
  63   0.0000       0.395472        10.7613 
  64   0.0000       0.415991        11.3197 
  65   0.0000       0.455848        12.4043 
  66   0.0000       0.474618        12.9150 
  67   0.0000       0.488130        13.2827 
  68   0.0000       0.502707        13.6793 
  69   0.0000       0.528299        14.3757 
  70   0.0000       0.535899        14.5826 
  71   0.0000       0.562336        15.3019 
  72   0.0000       0.572829        15.5875 
  73   0.0000       0.602265        16.3885 
  74   0.0000       0.610294        16.6069 
  75   0.0000       0.625116        17.0103 
  76   0.0000       0.649247        17.6669 
  77   0.0000       0.674618        18.3573 
  78   0.0000       0.733616        19.9627 
  79   0.0000       0.748987        20.3810 
  80   0.0000       0.781742        21.2723 
  81   0.0000       0.805909        21.9299 
  82   0.0000       0.832742        22.6601 
  83   0.0000       0.844357        22.9761 
  84   0.0000       0.882141        24.0043 
  85   0.0000       0.912383        24.8272 
  86   0.0000       0.965592        26.2751 
  87   0.0000       0.975333        26.5402 
  88   0.0000       0.986622        26.8473 
  89   0.0000       0.995811        27.0974 
  90   0.0000       1.020183        27.7606 
  91   0.0000       1.021860        27.8062 
  92   0.0000       1.031728        28.0748 
  93   0.0000       1.040453        28.3122 
  94   0.0000       1.061170        28.8759 
  95   0.0000       1.076687        29.2981 
  96   0.0000       1.111112        30.2349 
  97   0.0000       1.138478        30.9795 
  98   0.0000       1.159842        31.5609 
  99   0.0000       1.206375        32.8271 
 100   0.0000       1.220007        33.1981 
 101   0.0000       1.285983        34.9934 
 102   0.0000       1.304572        35.4992 
 103   0.0000       1.328929        36.1620 
 104   0.0000       1.396315        37.9957 
 105   0.0000       1.438027        39.1307 
 106   0.0000       1.516312        41.2610 
 107   0.0000       1.556409        42.3520 
 108   0.0000       1.658588        45.1325 
 109   0.0000       1.760663        47.9101 
 110   0.0000       1.767959        48.1086 
 111   0.0000       1.796023        48.8723 
 112   0.0000       1.843177        50.1554 
 113   0.0000       1.879985        51.1570 
 114   0.0000       1.923810        52.3495 
 115   0.0000       1.990523        54.1649 
 116   0.0000       2.033853        55.3439 
 117   0.0000       2.099574        57.1323 
 118   0.0000       2.127941        57.9042 
 119   0.0000       2.170060        59.0503 
 120   0.0000       2.189426        59.5773 
 121   0.0000       2.206438        60.0402 
 122   0.0000       2.277840        61.9832 
 123   0.0000       2.289501        62.3005 
 124   0.0000       2.307425        62.7882 
 125   0.0000       2.331794        63.4513 
 126   0.0000       2.415127        65.7189 
 127   0.0000       2.456286        66.8389 
 128   0.0000       2.475022        67.3488 
 129   0.0000       2.508486        68.2594 
 130   0.0000       2.594802        70.6082 
 131   0.0000       2.663391        72.4746 
 132   0.0000       2.697599        73.4054 
 133   0.0000       2.718575        73.9762 
 134   0.0000       2.768874        75.3449 
 135   0.0000       2.839332        77.2622 
 136   0.0000       2.904710        79.0412 
 137   0.0000       3.024096        82.2898 
 138   0.0000      13.683685       372.3520 
 139   0.0000      13.703620       372.8944 
 140   0.0000      13.976211       380.3120 
 141   0.0000      19.217133       522.9248 
 142   0.0000      25.638607       697.6620 

                    ********************************
                    * MULLIKEN POPULATION ANALYSIS *
                    ********************************

-----------------------
MULLIKEN ATOMIC CHARGES
-----------------------
   0 N :   -0.764044
   1 C :   -0.297038
   2 C :   -0.149697
   3 O :   -0.600232
   4 Ge:    0.832038
   5 S :   -0.216911
   6 C :   -0.758228
   7 H :    0.349125
   8 H :    0.216081
   9 H :    0.214247
  10 H :    0.209219
  11 H :    0.187418
  12 H :    0.000967
  13 H :    0.250819
  14 H :    0.267080
  15 H :    0.259157
Sum of atomic charges:   -0.0000000

--------------------------------
MULLIKEN REDUCED ORBITAL CHARGES
--------------------------------
  0 N s       :     3.593248  s :     3.593248
      pz      :     1.451925  p :     4.144389
      px      :     1.204307
      py      :     1.488157
      dz2     :     0.002733  d :     0.026408
      dxz     :     0.007128
      dyz     :     0.006305
      dx2y2   :     0.005848
      dxy     :     0.004395
  1 C s       :     3.283422  s :     3.283422
      pz      :     0.894760  p :     2.954940
      px      :     0.903928
      py      :     1.156253
      dz2     :     0.016011  d :     0.058675
      dxz     :     0.012869
      dyz     :     0.005288
      dx2y2   :     0.007292
      dxy     :     0.017214
  2 C s       :     3.253542  s :     3.253542
      pz      :     0.974239  p :     2.826257
      px      :     0.872978
      py      :     0.979039
      dz2     :     0.012253  d :     0.069898
      dxz     :     0.015282
      dyz     :     0.008427
      dx2y2   :     0.018566
      dxy     :     0.015370
  3 O s       :     3.814022  s :     3.814022
      pz      :     1.670823  p :     4.762771
      px      :     1.431524
      py      :     1.660425
      dz2     :     0.004706  d :     0.023439
      dxz     :     0.006079
      dyz     :     0.003673
      dx2y2   :     0.003327
      dxy     :     0.005653
  4 Ges       :     7.124841  s :     7.124841
      pz      :     4.483176  p :    13.750811
      px      :     4.559677
      py      :     4.707958
      dz2     :     2.054125  d :    10.292310
      dxz     :     2.064174
      dyz     :     2.042556
      dx2y2   :     2.055350
      dxy     :     2.076105
  5 S s       :     5.855870  s :     5.855870
      pz      :     3.831197  p :    10.299593
      px      :     3.099852
      py      :     3.368544
      dz2     :     0.009089  d :     0.061449
      dxz     :     0.005200
      dyz     :     0.005745
      dx2y2   :     0.009333
      dxy     :     0.032082
  6 C s       :     3.436626  s :     3.436626
      pz      :     1.170642  p :     3.283660
      px      :     1.047407
      py      :     1.065612
      dz2     :     0.009199  d :     0.037942
      dxz     :     0.002486
      dyz     :     0.010959
      dx2y2   :     0.006077
      dxy     :     0.009222
  7 H s       :     0.650875  s :     0.650875
  8 H s       :     0.783919  s :     0.783919
  9 H s       :     0.785753  s :     0.785753
 10 H s       :     0.790781  s :     0.790781
 11 H s       :     0.812582  s :     0.812582
 12 H s       :     0.999033  s :     0.999033
 13 H s       :     0.749181  s :     0.749181
 14 H s       :     0.732920  s :     0.732920
 15 H s       :     0.740843  s :     0.740843


                     *******************************
                     * LOEWDIN POPULATION ANALYSIS *
                     *******************************

----------------------
LOEWDIN ATOMIC CHARGES
----------------------
   0 N :   -0.414358
   1 C :   -0.163917
   2 C :   -0.086725
   3 O :   -0.315788
   4 Ge:    0.229035
   5 S :    0.064356
   6 C :   -0.456087
   7 H :    0.251245
   8 H :    0.115701
   9 H :    0.123419
  10 H :    0.118530
  11 H :    0.105029
  12 H :    0.013291
  13 H :    0.135439
  14 H :    0.143731
  15 H :    0.137099

-------------------------------
LOEWDIN REDUCED ORBITAL CHARGES
-------------------------------
  0 N s       :     3.178108  s :     3.178108
      pz      :     1.443710  p :     4.180678
      px      :     1.268643
      py      :     1.468325
      dz2     :     0.005466  d :     0.055571
      dxz     :     0.017522
      dyz     :     0.010463
      dx2y2   :     0.012359
      dxy     :     0.009761
  1 C s       :     2.906686  s :     2.906686
      pz      :     1.028823  p :     3.136834
      px      :     0.985785
      py      :     1.122226
      dz2     :     0.035445  d :     0.120397
      dxz     :     0.028363
      dyz     :     0.009880
      dx2y2   :     0.014354
      dxy     :     0.032355
  2 C s       :     2.909692  s :     2.909692
      pz      :     1.068511  p :     3.030840
      px      :     0.941984
      py      :     1.020345
      dz2     :     0.028346  d :     0.146193
      dxz     :     0.031708
      dyz     :     0.016407
      dx2y2   :     0.037043
      dxy     :     0.032689
  3 O s       :     3.473977  s :     3.473977
      pz      :     1.674803  p :     4.794179
      px      :     1.454045
      py      :     1.665330
      dz2     :     0.008803  d :     0.047633
      dxz     :     0.013160
      dyz     :     0.005133
      dx2y2   :     0.008701
      dxy     :     0.011836
  4 Ges       :     7.008288  s :     7.008288
      pz      :     4.592517  p :    14.080029
      px      :     4.685379
      py      :     4.802132
      dz2     :     2.127513  d :    10.682648
      dxz     :     2.179844
      dyz     :     2.084936
      dx2y2   :     2.114206
      dxy     :     2.176149
  5 S s       :     5.590692  s :     5.590692
      pz      :     3.780025  p :    10.269773
      px      :     3.085602
      py      :     3.404146
      dz2     :     0.011632  d :     0.075179
      dxz     :     0.006302
      dyz     :     0.005950
      dx2y2   :     0.011128
      dxy     :     0.040167
  6 C s       :     3.014697  s :     3.014697
      pz      :     1.174685  p :     3.374514
      px      :     1.085427
      py      :     1.114401
      dz2     :     0.015286  d :     0.066877
      dxz     :     0.004510
      dyz     :     0.018932
      dx2y2   :     0.010962
      dxy     :     0.017186
  7 H s       :     0.748755  s :     0.748755
  8 H s       :     0.884299  s :     0.884299
  9 H s       :     0.876581  s :     0.876581
 10 H s       :     0.881470  s :     0.881470
 11 H s       :     0.894971  s :     0.894971
 12 H s       :     0.986709  s :     0.986709
 13 H s       :     0.864561  s :     0.864561
 14 H s       :     0.856269  s :     0.856269
 15 H s       :     0.862901  s :     0.862901


                      *****************************
                      * MAYER POPULATION ANALYSIS *
                      *****************************

  NA   - Mulliken gross atomic population
  ZA   - Total nuclear charge
  QA   - Mulliken gross atomic charge
  VA   - Mayer's total valence
  BVA  - Mayer's bonded valence
  FA   - Mayer's free valence

  ATOM       NA         ZA         QA         VA         BVA        FA
  0 N      7.7640     7.0000    -0.7640     2.8557     2.8557    -0.0000
  1 C      6.2970     6.0000    -0.2970     3.7490     3.7490     0.0000
  2 C      6.1497     6.0000    -0.1497     3.7448     3.7448    -0.0000
  3 O      8.6002     8.0000    -0.6002     1.9809     1.9809    -0.0000
  4 Ge    31.1680    32.0000     0.8320     3.8723     3.8723     0.0000
  5 S     16.2169    16.0000    -0.2169     2.1104     2.1104     0.0000
  6 C      6.7582     6.0000    -0.7582     3.7181     3.7181    -0.0000
  7 H      0.6509     1.0000     0.3491     0.8492     0.8492     0.0000
  8 H      0.7839     1.0000     0.2161     0.8980     0.8980     0.0000
  9 H      0.7858     1.0000     0.2142     0.9101     0.9101    -0.0000
 10 H      0.7908     1.0000     0.2092     0.9092     0.9092    -0.0000
 11 H      0.8126     1.0000     0.1874     0.9071     0.9071    -0.0000
 12 H      0.9990     1.0000     0.0010     0.9797     0.9797    -0.0000
 13 H      0.7492     1.0000     0.2508     0.8900     0.8900    -0.0000
 14 H      0.7329     1.0000     0.2671     0.8901     0.8901    -0.0000
 15 H      0.7408     1.0000     0.2592     0.8842     0.8842    -0.0000

  Mayer bond orders larger than 0.100000
B(  0-N ,  1-C ) :   0.9807 B(  0-N ,  4-Ge) :   0.9882 B(  0-N ,  7-H ) :   0.8278 
B(  1-C ,  2-C ) :   0.9569 B(  1-C ,  8-H ) :   0.9048 B(  1-C ,  9-H ) :   0.9172 
B(  2-C ,  3-O ) :   0.9759 B(  2-C , 10-H ) :   0.9136 B(  2-C , 11-H ) :   0.9050 
B(  3-O ,  4-Ge) :   0.9223 B(  4-Ge,  5-S ) :   1.0028 B(  4-Ge, 12-H ) :   0.8951 
B(  5-S ,  6-C ) :   1.0050 B(  6-C , 13-H ) :   0.8968 B(  6-C , 14-H ) :   0.9019 
B(  6-C , 15-H ) :   0.8947 

-------
TIMINGS
-------

Total SCF time: 0 days 0 hours 0 min 4 sec 

Total time                  ....       4.639 sec
Sum of individual times     ....       4.486 sec  ( 96.7%)

Fock matrix formation       ....       3.835 sec  ( 82.7%)
  Split-RI-J                ....       0.345 sec  (  9.0% of F)
  Chain of spheres X        ....       3.105 sec  ( 81.0% of F)
  XC integration            ....       0.385 sec  ( 10.0% of F)
    Basis function eval.    ....       0.152 sec  ( 39.4% of XC)
    Density eval.           ....       0.076 sec  ( 19.8% of XC)
    XC-Functional eval.     ....       0.044 sec  ( 11.4% of XC)
    XC-Potential eval.      ....       0.076 sec  ( 19.8% of XC)
Diagonalization             ....       0.005 sec  (  0.1%)
Density matrix formation    ....       0.002 sec  (  0.0%)
Population analysis         ....       0.005 sec  (  0.1%)
Initial guess               ....       0.006 sec  (  0.1%)
Orbital Transformation      ....       0.000 sec  (  0.0%)
Orbital Orthonormalization  ....       0.004 sec  (  0.1%)
DIIS solution               ....       0.003 sec  (  0.1%)
SOSCF solution              ....       0.014 sec  (  0.3%)
Grid generation             ....       0.616 sec  ( 13.3%)

Maximum memory used throughout the entire SCF-calculation: 51.9 MB


-------------------------------------------------------------------------------
                          DFT DISPERSION CORRECTION                            
                                                                               
                              DFTD3 V3.1  Rev 1                                
                          USING Becke-Johnson damping                          
-------------------------------------------------------------------------------
The PBEh-3c composite method is recognized
Using three-body term ABC
Active option DFTDOPT                   ...         4   

molecular C6(AA) [au] = 3610.501144 


            DFT-D V3
 parameters
 s6 scaling factor         :     1.0000 
 a1 scaling factor         :     0.4860 
 s8 scaling factor         :     0.0000 
 a2 scaling factor         :     4.5000 
 Damping factor alpha9(ATM):    16.0000 
 ad hoc parameters k1-k3   :    16.0000     1.3333    -4.0000 

 Edisp/kcal,au: -4.969222631952  -0.007918959486 
 E6   /kcal   :  -4.980821331 
 E8   /kcal   :  -0.000000000 
 E6(ABC)      :   0.011598699 
 % E8         :   0.000000000 
 % E6(ABC)    :  -0.233410739 

-------------------------   ----------------
Dispersion correction           -0.007918959
-------------------------   ----------------

------------------   -----------------
gCP correction             0.034778432
------------------   -----------------

-------------------------   --------------------
FINAL SINGLE POINT ENERGY     -2722.951327644680
-------------------------   --------------------

                                *** OPTIMIZATION RUN DONE ***

                            ***************************************
                            *     ORCA property calculations      *
                            ***************************************

                                    ---------------------
                                    Active property flags
                                    ---------------------
   (+) Dipole Moment


------------------------------------------------------------------------------
                       ORCA ELECTRIC PROPERTIES CALCULATION
------------------------------------------------------------------------------

Dipole Moment Calculation                       ... on
Quadrupole Moment Calculation                   ... off
Polarizability Calculation                      ... off
GBWName                                         ... PBEh_3c_opt___C3H9GeNOS.gbw
Electron density                                ... PBEh_3c_opt___C3H9GeNOS.scfp
The origin for moment calculation is the CENTER OF MASS  = ( 0.462499, -0.067805  0.158920)

-------------
DIPOLE MOMENT
-------------
                                X             Y             Z
Electronic contribution:      1.66878      -3.13919      -2.12083
Nuclear contribution   :     -1.62801       3.19660       1.77772
                        -----------------------------------------
Total Dipole Moment    :      0.04077       0.05741      -0.34312
                        -----------------------------------------
Magnitude (a.u.)       :      0.35027
Magnitude (Debye)      :      0.89031



--------------------
Rotational spectrum 
--------------------
 
Rotational constants in cm-1:     0.125500     0.032978     0.031355 
Rotational constants in MHz :  3762.394660   988.662611   940.000609 

 Dipole components along the rotational axes: 
x,y,z [a.u.] :    -0.058205     0.334293     0.086872 
x,y,z [Debye]:    -0.147945     0.849706     0.220811 

 

Timings for individual modules:

Sum of individual times         ...      389.227 sec (=   6.487 min)
GTO integral calculation        ...       40.926 sec (=   0.682 min)  10.5 %
SCF iterations                  ...      244.844 sec (=   4.081 min)  62.9 %
SCF Gradient evaluation         ...      101.728 sec (=   1.695 min)  26.1 %
Geometry relaxation             ...        1.729 sec (=   0.029 min)   0.4 %
                             ****ORCA TERMINATED NORMALLY****
TOTAL RUN TIME: 0 days 0 hours 7 minutes 6 seconds 651 msec
