
                                 *****************
                                 * O   R   C   A *
                                 *****************

                                            #,                                       
                                            ###                                      
                                            ####                                     
                                            #####                                    
                                            ######                                   
                                           ########,                                 
                                     ,,################,,,,,                         
                               ,,#################################,,                 
                          ,,##########################################,,             
                       ,#########################################, ''#####,          
                    ,#############################################,,   '####,        
                  ,##################################################,,,,####,       
                ,###########''''           ''''###############################       
              ,#####''   ,,,,##########,,,,          '''####'''          '####       
            ,##' ,,,,###########################,,,                        '##       
           ' ,,###''''                  '''############,,,                           
         ,,##''                                '''############,,,,        ,,,,,,###''
      ,#''                                            '''#######################'''  
     '                                                          ''''####''''         
             ,#######,   #######,   ,#######,      ##                                
            ,#'     '#,  ##    ##  ,#'     '#,    #''#        ######   ,####,        
            ##       ##  ##   ,#'  ##            #'  '#       #        #'  '#        
            ##       ##  #######   ##           ,######,      #####,   #    #        
            '#,     ,#'  ##    ##  '#,     ,#' ,#      #,         ##   #,  ,#        
             '#######'   ##     ##  '#######'  #'      '#     #####' # '####'        



                  #######################################################
                  #                        -***-                        #
                  #          Department of theory and spectroscopy      #
                  #    Directorship and core code : Frank Neese         #
                  #        Max Planck Institute fuer Kohlenforschung    #
                  #                Kaiser Wilhelm Platz 1               #
                  #                 D-45470 Muelheim/Ruhr               #
                  #                      Germany                        #
                  #                                                     #
                  #                  All rights reserved                #
                  #                        -***-                        #
                  #######################################################


                         Program Version 5.0.2 -  RELEASE  -


 With contributions from (in alphabetic order):
   Daniel Aravena         : Magnetic Suceptibility
   Michael Atanasov       : Ab Initio Ligand Field Theory (pilot matlab implementation)
   Alexander A. Auer      : GIAO ZORA, VPT2 properties, NMR spectrum
   Ute Becker             : Parallelization
   Giovanni Bistoni       : ED, misc. LED, open-shell LED, HFLD
   Martin Brehm           : Molecular dynamics
   Dmytro Bykov           : SCF Hessian
   Vijay G. Chilkuri      : MRCI spin determinant printing, contributions to CSF-ICE
   Dipayan Datta          : RHF DLPNO-CCSD density
   Achintya Kumar Dutta   : EOM-CC, STEOM-CC
   Dmitry Ganyushin       : Spin-Orbit,Spin-Spin,Magnetic field MRCI
   Miquel Garcia          : C-PCM and meta-GGA Hessian, CC/C-PCM, Gaussian charge scheme
   Yang Guo               : DLPNO-NEVPT2, F12-NEVPT2, CIM, IAO-localization
   Andreas Hansen         : Spin unrestricted coupled pair/coupled cluster methods
   Benjamin Helmich-Paris : MC-RPA, TRAH-SCF, COSX integrals
   Lee Huntington         : MR-EOM, pCC
   Robert Izsak           : Overlap fitted RIJCOSX, COSX-SCS-MP3, EOM
   Marcus Kettner         : VPT2
   Christian Kollmar      : KDIIS, OOCD, Brueckner-CCSD(T), CCSD density, CASPT2, CASPT2-K
   Simone Kossmann        : Meta GGA functionals, TD-DFT gradient, OOMP2, MP2 Hessian
   Martin Krupicka        : Initial AUTO-CI
   Lucas Lang             : DCDCAS
   Marvin Lechner         : AUTO-CI (C++ implementation), FIC-MRCC
   Dagmar Lenk            : GEPOL surface, SMD
   Dimitrios Liakos       : Extrapolation schemes; Compound Job, initial MDCI parallelization
   Dimitrios Manganas     : Further ROCIS development; embedding schemes
   Dimitrios Pantazis     : SARC Basis sets
   Anastasios Papadopoulos: AUTO-CI, single reference methods and gradients
   Taras Petrenko         : DFT Hessian,TD-DFT gradient, ASA, ECA, R-Raman, ABS, FL, XAS/XES, NRVS
   Peter Pinski           : DLPNO-MP2, DLPNO-MP2 Gradient
   Christoph Reimann      : Effective Core Potentials
   Marius Retegan         : Local ZFS, SOC
   Christoph Riplinger    : Optimizer, TS searches, QM/MM, DLPNO-CCSD(T), (RO)-DLPNO pert. Triples
   Tobias Risthaus        : Range-separated hybrids, TD-DFT gradient, RPA, STAB
   Michael Roemelt        : Original ROCIS implementation
   Masaaki Saitow         : Open-shell DLPNO-CCSD energy and density
   Barbara Sandhoefer     : DKH picture change effects
   Avijit Sen             : IP-ROCIS
   Kantharuban Sivalingam : CASSCF convergence, NEVPT2, FIC-MRCI
   Bernardo de Souza      : ESD, SOC TD-DFT
   Georgi Stoychev        : AutoAux, RI-MP2 NMR, DLPNO-MP2 response
   Willem Van den Heuvel  : Paramagnetic NMR
   Boris Wezisla          : Elementary symmetry handling
   Frank Wennmohs         : Technical directorship


 We gratefully acknowledge several colleagues who have allowed us to
 interface, adapt or use parts of their codes:
   Stefan Grimme, W. Hujo, H. Kruse, P. Pracht,  : VdW corrections, initial TS optimization,
                  C. Bannwarth, S. Ehlert          DFT functionals, gCP, sTDA/sTD-DF
   Ed Valeev, F. Pavosevic, A. Kumar             : LibInt (2-el integral package), F12 methods
   Garnet Chan, S. Sharma, J. Yang, R. Olivares  : DMRG
   Ulf Ekstrom                                   : XCFun DFT Library
   Mihaly Kallay                                 : mrcc  (arbitrary order and MRCC methods)
   Jiri Pittner, Ondrej Demel                    : Mk-CCSD
   Frank Weinhold                                : gennbo (NPA and NBO analysis)
   Christopher J. Cramer and Donald G. Truhlar   : smd solvation model
   Lars Goerigk                                  : TD-DFT with DH, B97 family of functionals
   V. Asgeirsson, H. Jonsson                     : NEB implementation
   FAccTs GmbH                                   : IRC, NEB, NEB-TS, DLPNO-Multilevel, CI-OPT
                                                   MM, QMMM, 2- and 3-layer-ONIOM, Crystal-QMMM,
                                                   LR-CPCM, SF, NACMEs, symmetry and pop. for TD-DFT,
                                                   nearIR, NL-DFT gradient (VV10), updates on ESD,
                                                   ML-optimized integration grids
   S Lehtola, MJT Oliveira, MAL Marques          : LibXC Library
   Liviu Ungur et al                             : ANISO software


 Your calculation uses the libint2 library for the computation of 2-el integrals
 For citations please refer to: http://libint.valeyev.net

 Your ORCA version has been built with support for libXC version: 5.1.0
 For citations please refer to: https://tddft.org/programs/libxc/

 This ORCA versions uses:
   CBLAS   interface :  Fast vector & matrix operations
   LAPACKE interface :  Fast linear algebra routines
   SCALAPACK package :  Parallel linear algebra routines
   Shared memory     :  Shared parallel matrices
   BLAS/LAPACK       :  OpenBLAS 0.3.15  USE64BITINT DYNAMIC_ARCH NO_AFFINITY SkylakeX SINGLE_THREADED
        Core in use  :  SkylakeX
   Copyright (c) 2011-2014, The OpenBLAS Project


Your calculation utilizes the geometrical counterpoise correction gCP
Please cite in your paper:
H.Kruse, S. Grimme J.Chem.Phys., 136, (2012), 154101 
   

Your calculation utilizes the atom-pairwise dispersion correction
with the Becke-Johnson damping scheme (D3BJ)
Cite in your paper:
S.Grimme, S.Ehrlich, L.Goerigk, J Comput Chem, (2011), 32, 1456–1465 
S.Grimme, J.Antony, S.Ehrlich and H.Krieg, J.Chem.Phys., 132, (2010), 154104 
   

Your calculation employs the composite approach PBEh-3c.
Please cite in your paper:
S. Grimme, J. G. Brandenburg, C. Bannwarth, A. Hansen J.Chem.Phys., 143, (2015), 054107 
   

================================================================================

----- Orbital basis set information -----
Your calculation utilizes the basis: def2-mSVP

----- AuxJ basis set information -----
Your calculation utilizes the auxiliary basis: def2/J
   F. Weigend, Phys. Chem. Chem. Phys. 8, 1057 (2006).

================================================================================
                                        WARNINGS
                       Please study these warnings very carefully!
================================================================================


INFO   : the flag for use of the SHARK integral package has been found!

================================================================================
                                       INPUT FILE
================================================================================
NAME = PBEh_3c_opt__PBEh3c_freq_2cores_sp___C3H9GeNOS.inp
|  1> !PBEh-3c  DefGrid2 TightSCF freq
|  2> %maxcore 2625.0
|  3> %pal nprocs = 2  end
|  4> %
|  5> end
|  6> %output XYZFILE 1 end
|  7> * xyz 0 1
|  8> N   -1.09228240134334      0.26023280558333     -1.09443369163762
|  9> C   -2.29663844701106      0.34554481705424     -0.27582481301160
| 10> C   -1.88912887977961      0.34351363590066      1.20630479166534
| 11> O   -0.77137990535579     -0.50418217626624      1.38332370928545
| 12> Ge  0.23722928615267     -0.45651133879060     -0.07957521562996
| 13> S   2.00376772076654      0.86139545259102     -0.04263655351296
| 14> C   3.32739900119697     -0.35684442108895      0.25338856400730
| 15> H   -0.90810552725185      1.05857226669368     -1.67960714044476
| 16> H   -2.95081225698990     -0.50833070571585     -0.48223900465994
| 17> H   -2.86793058178200      1.24552103877546     -0.51181083359191
| 18> H   -2.70849666358662     -0.01775670283840      1.83312933128874
| 19> H   -1.65123813946312      1.36587969677083      1.52945338371027
| 20> H   0.71683931798457     -1.87201884654465     -0.38674415015375
| 21> H   3.28032646309558     -1.18537299642052     -0.45031955302386
| 22> H   4.27249257074242      0.16119713114583      0.10740638716322
| 23> H   3.29796044262452     -0.74083965684985      1.26998878854604
| 24> *
| 25> 
| 26>                          ****END OF INPUT****
================================================================================

                       ****************************
                       * Single Point Calculation *
                       ****************************

---------------------------------
CARTESIAN COORDINATES (ANGSTROEM)
---------------------------------
  N     -1.092282    0.260233   -1.094434
  C     -2.296638    0.345545   -0.275825
  C     -1.889129    0.343514    1.206305
  O     -0.771380   -0.504182    1.383324
  Ge     0.237229   -0.456511   -0.079575
  S      2.003768    0.861395   -0.042637
  C      3.327399   -0.356844    0.253389
  H     -0.908106    1.058572   -1.679607
  H     -2.950812   -0.508331   -0.482239
  H     -2.867931    1.245521   -0.511811
  H     -2.708497   -0.017757    1.833129
  H     -1.651238    1.365880    1.529453
  H      0.716839   -1.872019   -0.386744
  H      3.280326   -1.185373   -0.450320
  H      4.272493    0.161197    0.107406
  H      3.297960   -0.740840    1.269989

----------------------------
CARTESIAN COORDINATES (A.U.)
----------------------------
  NO LB      ZA    FRAG     MASS         X           Y           Z
   0 N     7.0000    0    14.007   -2.064115    0.491769   -2.068180
   1 C     6.0000    0    12.011   -4.340018    0.652985   -0.521233
   2 C     6.0000    0    12.011   -3.569936    0.649147    2.279586
   3 O     8.0000    0    15.999   -1.457697   -0.952766    2.614103
   4 Ge   32.0000    0    72.590    0.448298   -0.862681   -0.150375
   5 S    16.0000    0    32.060    3.786572    1.627801   -0.080571
   6 C     6.0000    0    12.011    6.287873   -0.674338    0.478835
   7 H     1.0000    0     1.008   -1.716071    2.000412   -3.173998
   8 H     1.0000    0     1.008   -5.576227   -0.960606   -0.911300
   9 H     1.0000    0     1.008   -5.419603    2.353694   -0.967182
  10 H     1.0000    0     1.008   -5.118317   -0.033555    3.464112
  11 H     1.0000    0     1.008   -3.120388    2.581139    2.890248
  12 H     1.0000    0     1.008    1.354630   -3.537603   -0.730841
  13 H     1.0000    0     1.008    6.198919   -2.240030   -0.850981
  14 H     1.0000    0     1.008    8.073841    0.304618    0.202969
  15 H     1.0000    0     1.008    6.232242   -1.399984    2.399931

--------------------------------
INTERNAL COORDINATES (ANGSTROEM)
--------------------------------
 N      0   0   0     0.000000000000     0.00000000     0.00000000
 C      1   0   0     1.458722770167     0.00000000     0.00000000
 C      2   1   0     1.537132505070   108.79255670     0.00000000
 O      3   2   1     1.413961335039   109.33422076   324.15605552
 Ge     4   3   2     1.777537137294   109.23470537    32.40194383
 S      5   4   3     2.204291454526   117.19226410    98.67229186
 C      6   5   4     1.823112455819   100.66402709   101.60541079
 H      1   2   3     1.006824205760   115.51957487   244.02518300
 H      2   1   3     1.095286994610   109.98425513   239.68153138
 H      2   1   3     1.091797281927   111.03431088   121.66456258
 H      3   2   1     1.093063962569   110.77168499   204.23777786
 H      3   2   1     1.098293849244   109.87031899    85.57013226
 H      5   4   3     1.525791611420   108.61230157   221.09650100
 H      7   6   5     1.088062745415   111.86399803    51.34464365
 H      7   6   5     1.087602731237   106.90698895   169.70451141
 H      7   6   5     1.087103944593   111.60562696   288.19887126

---------------------------
INTERNAL COORDINATES (A.U.)
---------------------------
 N      0   0   0     0.000000000000     0.00000000     0.00000000
 C      1   0   0     2.756586540930     0.00000000     0.00000000
 C      2   1   0     2.904759466130   108.79255670     0.00000000
 O      3   2   1     2.671999687178   109.33422076   324.15605552
 Ge     4   3   2     3.359058382360   109.23470537    32.40194383
 S      5   4   3     4.165507168397   117.19226410    98.67229186
 C      6   5   4     3.445183252838   100.66402709   101.60541079
 H      1   2   3     1.902622013890   115.51957487   244.02518300
 H      2   1   3     2.069792457859   109.98425513   239.68153138
 H      2   1   3     2.063197856602   111.03431088   121.66456258
 H      3   2   1     2.065591536115   110.77168499   204.23777786
 H      3   2   1     2.075474589642   109.87031899    85.57013226
 H      5   4   3     2.883328283017   108.61230157   221.09650100
 H      7   6   5     2.056140605357   111.86399803    51.34464365
 H      7   6   5     2.055271304543   106.90698895   169.70451141
 H      7   6   5     2.054328734387   111.60562696   288.19887126

---------------------
BASIS SET INFORMATION
---------------------
There are 6 groups of distinct atoms

 Group   1 Type N   : 8s4p1d contracted to 4s2p1d pattern {5111/31/1}
 Group   2 Type C   : 8s4p1d contracted to 4s2p1d pattern {5111/31/1}
 Group   3 Type O   : 8s4p1d contracted to 4s2p1d pattern {5111/31/1}
 Group   4 Type Ge  : 14s10p6d contracted to 5s4p3d pattern {63311/5311/411}
 Group   5 Type S   : 10s7p1d contracted to 4s3p1d pattern {5311/511/1}
 Group   6 Type H   : 4s contracted to 2s pattern {31}

Atom   0N    basis set group =>   1
Atom   1C    basis set group =>   2
Atom   2C    basis set group =>   2
Atom   3O    basis set group =>   3
Atom   4Ge   basis set group =>   4
Atom   5S    basis set group =>   5
Atom   6C    basis set group =>   2
Atom   7H    basis set group =>   6
Atom   8H    basis set group =>   6
Atom   9H    basis set group =>   6
Atom  10H    basis set group =>   6
Atom  11H    basis set group =>   6
Atom  12H    basis set group =>   6
Atom  13H    basis set group =>   6
Atom  14H    basis set group =>   6
Atom  15H    basis set group =>   6
---------------------------------
AUXILIARY/J BASIS SET INFORMATION
---------------------------------
There are 6 groups of distinct atoms

 Group   1 Type N   : 12s5p4d2f1g contracted to 6s4p3d1f1g pattern {711111/2111/211/2/1}
 Group   2 Type C   : 12s5p4d2f1g contracted to 6s4p3d1f1g pattern {711111/2111/211/2/1}
 Group   3 Type O   : 12s5p4d2f1g contracted to 6s4p3d1f1g pattern {711111/2111/211/2/1}
 Group   4 Type Ge  : 19s5p5d3f1g contracted to 8s4p3d2f1g pattern {121111111/2111/311/21/1}
 Group   5 Type S   : 14s5p5d2f1g contracted to 8s4p3d1f1g pattern {71111111/2111/311/2/1}
 Group   6 Type H   : 5s2p1d contracted to 3s1p1d pattern {311/2/1}

Atom   0N    basis set group =>   1
Atom   1C    basis set group =>   2
Atom   2C    basis set group =>   2
Atom   3O    basis set group =>   3
Atom   4Ge   basis set group =>   4
Atom   5S    basis set group =>   5
Atom   6C    basis set group =>   2
Atom   7H    basis set group =>   6
Atom   8H    basis set group =>   6
Atom   9H    basis set group =>   6
Atom  10H    basis set group =>   6
Atom  11H    basis set group =>   6
Atom  12H    basis set group =>   6
Atom  13H    basis set group =>   6
Atom  14H    basis set group =>   6
Atom  15H    basis set group =>   6


           ************************************************************
           *        Program running with 2 parallel MPI-processes     *
           *              working on a common directory               *
           ************************************************************
------------------------------------------------------------------------------
                           ORCA GTO INTEGRAL CALCULATION
                           -- RI-GTO INTEGRALS CHOSEN --
------------------------------------------------------------------------------
------------------------------------------------------------------------------
                   ___                                                        
                  /   \      - P O W E R E D   B Y -                         
                 /     \                                                     
                 |  |  |   _    _      __       _____    __    __             
                 |  |  |  | |  | |    /  \     |  _  \  |  |  /  |          
                  \  \/   | |  | |   /    \    | | | |  |  | /  /          
                 / \  \   | |__| |  /  /\  \   | |_| |  |  |/  /          
                |  |  |   |  __  | /  /__\  \  |    /   |      \           
                |  |  |   | |  | | |   __   |  |    \   |  |\   \          
                \     /   | |  | | |  |  |  |  | |\  \  |  | \   \       
                 \___/    |_|  |_| |__|  |__|  |_| \__\ |__|  \__/        
                                                                              
                      - O R C A' S   B I G   F R I E N D -                    
                                      &                                       
                       - I N T E G R A L  F E E D E R -                       
                                                                              
 v1 FN, 2020, v2 2021                                                         
------------------------------------------------------------------------------


Reading SHARK input file PBEh_3c_opt__PBEh3c_freq_2cores_sp___C3H9GeNOS.SHARKINP.tmp ... ok
----------------------
SHARK INTEGRAL PACKAGE
----------------------

Number of atoms                             ...     16
Number of basis functions                   ...    143
Number of shells                            ...     73
Maximum angular momentum                    ...      2
Integral batch strategy                     ... SHARK/LIBINT Hybrid
RI-J (if used) integral strategy            ... SPLIT-RIJ (Revised 2003 algorithm where possible)
Printlevel                                  ...      1
Contraction scheme used                     ... SEGMENTED contraction
Coulomb Range Separation                    ... NOT USED
Exchange Range Separation                   ... NOT USED
Finite Nucleus Model                        ... NOT USED
Auxiliary Coulomb fitting basis             ... AVAILABLE
   # of basis functions in Aux-J            ...    453
   # of shells in Aux-J                     ...    155
   Maximum angular momentum in Aux-J        ...      4
Auxiliary J/K fitting basis                 ... NOT available
Auxiliary Correlation fitting basis         ... NOT available
Auxiliary 'external' fitting basis          ... NOT available
Integral threshold                          ...     2.500000e-11
Primitive cut-off                           ...     2.500000e-12
Primitive pair pre-selection threshold      ...     2.500000e-12

Calculating pre-screening integrals         ... done (  0.0 sec) Dimension = 73
Organizing shell pair data                  ... done (  0.0 sec)
Shell pair information
Total number of shell pairs                 ...      2701
Shell pairs after pre-screening             ...      2362
Total number of primitive shell pairs       ...     11330
Primitive shell pairs kept                  ...      6783
          la=0 lb=0:    934 shell pairs
          la=1 lb=0:    719 shell pairs
          la=1 lb=1:    149 shell pairs
          la=2 lb=0:    370 shell pairs
          la=2 lb=1:    147 shell pairs
          la=2 lb=2:     43 shell pairs

Calculating one electron integrals          ... done (  0.0 sec)
Calculating RI/J V-Matrix + Cholesky decomp.... done (  0.0 sec)
Calculating Nuclear repulsion               ... done (  0.0 sec) ENN=    701.924658394991 Eh

SHARK setup successfully completed in   0.2 seconds

Maximum memory used throughout the entire GTOINT-calculation: 12.0 MB


           ************************************************************
           *        Program running with 2 parallel MPI-processes     *
           *              working on a common directory               *
           ************************************************************
-------------------------------------------------------------------------------
                                 ORCA SCF
-------------------------------------------------------------------------------

------------
SCF SETTINGS
------------
Hamiltonian:
 Density Functional     Method          .... DFT(GTOs)
 Exchange Functional    Exchange        .... PBE
   PBE kappa parameter   XKappa         ....  1.024500
   PBE mue parameter    XMuePBE         ....  0.123457
 Correlation Functional Correlation     .... PBE
   PBE beta parameter  CBetaPBE         ....  0.030000
 LDA part of GGA corr.  LDAOpt          .... PW91-LDA
 Gradients option       PostSCFGGA      .... off
 Hybrid DFT is turned on
   Fraction HF Exchange ScalHFX         ....  0.420000
   Scaling of DF-GGA-X  ScalDFX         ....  0.580000
   Scaling of DF-GGA-C  ScalDFC         ....  1.000000
   Scaling of DF-LDA-C  ScalLDAC        ....  1.000000
   Perturbative correction              ....  0.000000
   Density functional embedding theory  .... OFF
 RI-approximation to the Coulomb term is turned on
   Number of AuxJ basis functions       .... 453
   RIJ-ON(X) (HFX calculated with O(N)) .... on
   Number of AuxJ basis functions       .... 453
   RIJ-COSX (HFX calculated with COS-X)).... on


General Settings:
 Integral files         IntName         .... PBEh_3c_opt__PBEh3c_freq_2cores_sp___C3H9GeNOS
 Hartree-Fock type      HFTyp           .... RHF
 Total Charge           Charge          ....    0
 Multiplicity           Mult            ....    1
 Number of Electrons    NEL             ....   90
 Basis Dimension        Dim             ....  143
 Nuclear Repulsion      ENuc            ....    701.9246583950 Eh

Convergence Acceleration:
 DIIS                   CNVDIIS         .... on
   Start iteration      DIISMaxIt       ....    12
   Startup error        DIISStart       ....  0.200000
   # of expansion vecs  DIISMaxEq       ....     5
   Bias factor          DIISBfac        ....   1.050
   Max. coefficient     DIISMaxC        ....  10.000
 Trust-Rad. Augm. Hess. CNVTRAH         .... auto
   Auto Start mean grad. ratio tolernc. ....  1.125000
   Auto Start start iteration           ....    20
   Auto Start num. interpolation iter.  ....    10
   Max. Number of Micro iterations      ....    16
   Max. Number of Macro iterations      .... Maxiter - #DIIS iter
   Number of Davidson start vectors     ....     2
   Converg. threshold I  (grad. norm)   ....   1.000e-05
   Converg. threshold II (energy diff.) ....   1.000e-08
   Grad. Scal. Fac. for Micro threshold ....   0.100
   Minimum threshold for Micro iter.    ....   0.010
   NR start threshold (gradient norm)   ....   0.001
   Initial trust radius                 ....   0.400
   Minimum AH scaling param. (alpha)    ....   1.000
   Maximum AH scaling param. (alpha)    .... 1000.000
   Orbital update algorithm             .... Taylor
   White noise on init. David. guess    .... on
   Maximum white noise                  ....   0.010
   Quad. conv. algorithm                .... NR
   COSX micro iterations for RIJONX calc.... off
 SOSCF                  CNVSOSCF        .... on
   Start iteration      SOSCFMaxIt      ....   150
   Startup grad/error   SOSCFStart      ....  0.003300
 Level Shifting         CNVShift        .... on
   Level shift para.    LevelShift      ....    0.2500
   Turn off err/grad.   ShiftErr        ....    0.0010
 Zerner damping         CNVZerner       .... off
 Static damping         CNVDamp         .... on
   Fraction old density DampFac         ....    0.7000
   Max. Damping (<1)    DampMax         ....    0.9800
   Min. Damping (>=0)   DampMin         ....    0.0000
   Turn off err/grad.   DampErr         ....    0.1000
 Fernandez-Rico         CNVRico         .... off

SCF Procedure:
 Maximum # iterations   MaxIter         ....   125
 SCF integral mode      SCFMode         .... Direct
   Integral package                     .... SHARK and LIBINT hybrid scheme
 Reset frequency        DirectResetFreq ....    20
 Integral Threshold     Thresh          ....  2.500e-11 Eh
 Primitive CutOff       TCut            ....  2.500e-12 Eh

Convergence Tolerance:
 Convergence Check Mode ConvCheckMode   .... Total+1el-Energy
 Convergence forced     ConvForced      .... 0
 Energy Change          TolE            ....  1.000e-08 Eh
 1-El. energy change                    ....  1.000e-05 Eh
 Orbital Gradient       TolG            ....  1.000e-05
 Orbital Rotation angle TolX            ....  1.000e-05
 DIIS Error             TolErr          ....  5.000e-07


Diagonalization of the overlap matrix:
Smallest eigenvalue                        ... 6.802e-03
Time for diagonalization                   ...    0.003 sec
Threshold for overlap eigenvalues          ... 1.000e-08
Number of eigenvalues below threshold      ... 0
Time for construction of square roots      ...    0.001 sec
Total time needed                          ...    0.005 sec

--------------------------------
INITIAL GUESS: MINIMAL BASIS EHT
--------------------------------
The minimal basis has 61 functions
EHT matrix was diagonalized
Basis set overlap was calculated now projecting the orbitals
Using GuessMode=FMatrix for the initial guess
C*T matrix was formed
Effective Fockian was calculated
Effective Fockian was diagonalized
Initial density was built
                      ------------------
                      INITIAL GUESS DONE
                      ------------------
-------------------
DFT GRID GENERATION
-------------------

General Integration Accuracy     IntAcc      ... 4.388
Radial Grid Type                 RadialGrid  ... OptM3 with GC (2021)
Angular Grid (max. ang.)         AngularGrid ... 4 (Lebedev-302)
Angular grid pruning method      GridPruning ... 4 (adaptive)
Weight generation scheme         WeightScheme... Becke
Basis function cutoff            BFCut       ... 1.0000e-11
Integration weight cutoff        WCut        ... 1.0000e-14
Angular grids for H and He will be reduced by one unit
Partially contracted basis set               ... off
Rotationally invariant grid construction     ... off

Total number of grid points                  ...    77788
Total number of batches                      ...     1223
Average number of points per batch           ...       63
Average number of grid points per atom       ...     4862
Time for grid setup =    0.558 sec

--------------------
COSX GRID GENERATION
--------------------

GRIDX 1
-------
General Integration Accuracy     IntAcc      ... 3.816
Radial Grid Type                 RadialGrid  ... OptM3 with GC (2021)
Angular Grid (max. ang.)         AngularGrid ... 1 (Lebedev-50)
Angular grid pruning method      GridPruning ... 4 (adaptive)
Weight generation scheme         WeightScheme... Becke
Basis function cutoff            BFCut       ... 1.0000e-11
Integration weight cutoff        WCut        ... 1.0000e-14
Angular grids for H and He will be reduced by one unit
Partially contracted basis set               ... on
Rotationally invariant grid construction     ... off

Total number of grid points                  ...     9697
Total number of batches                      ...      161
Average number of points per batch           ...       60
Average number of grid points per atom       ...      606
UseSFitting                                  ... on

GRIDX 2
-------
General Integration Accuracy     IntAcc      ... 4.020
Radial Grid Type                 RadialGrid  ... OptM3 with GC (2021)
Angular Grid (max. ang.)         AngularGrid ... 2 (Lebedev-110)
Angular grid pruning method      GridPruning ... 4 (adaptive)
Weight generation scheme         WeightScheme... Becke
Basis function cutoff            BFCut       ... 1.0000e-11
Integration weight cutoff        WCut        ... 1.0000e-14
Angular grids for H and He will be reduced by one unit
Partially contracted basis set               ... on
Rotationally invariant grid construction     ... off

Total number of grid points                  ...    20588
Total number of batches                      ...      328
Average number of points per batch           ...       62
Average number of grid points per atom       ...     1287
UseSFitting                                  ... on

GRIDX 3
-------
General Integration Accuracy     IntAcc      ... 4.338
Radial Grid Type                 RadialGrid  ... OptM3 with GC (2021)
Angular Grid (max. ang.)         AngularGrid ... 3 (Lebedev-194)
Angular grid pruning method      GridPruning ... 4 (adaptive)
Weight generation scheme         WeightScheme... Becke
Basis function cutoff            BFCut       ... 1.0000e-11
Integration weight cutoff        WCut        ... 1.0000e-14
Angular grids for H and He will be reduced by one unit
Partially contracted basis set               ... on
Rotationally invariant grid construction     ... off

Total number of grid points                  ...    45837
Total number of batches                      ...      725
Average number of points per batch           ...       63
Average number of grid points per atom       ...     2865
UseSFitting                                  ... on

Time for X-Grid setup             =    0.536 sec

--------------
SCF ITERATIONS
--------------
ITER       Energy         Delta-E        Max-DP      RMS-DP      [F,P]     Damp
               ***  Starting incremental Fock matrix formation  ***
  0  -2719.5207046521   0.000000000000 0.24206813  0.00761997  1.6334443 0.7000
  1  -2720.7704502410  -1.249745588936 0.15734348  0.00432681  0.7907529 0.7000
  2  -2721.4584980105  -0.688047769508 0.13598244  0.00263183  0.4015368 0.7000
  3  -2721.9165832423  -0.458085231733 0.09512019  0.00172010  0.2309679 0.7000
                               ***Turning on DIIS***
  4  -2722.2345297993  -0.317946557048 0.06161564  0.00117663  0.1608681 0.7000
  5  -2722.4569486935  -0.222418894150 0.04053688  0.00085826  0.1121813 0.7000
  6  -2722.6128710787  -0.155922385192 0.10317145  0.00210759  0.0785721 0.0000
                      *** Initiating the SOSCF procedure ***
                           *** Shutting down DIIS ***
                      *** Re-Reading the Fockian *** 
                      *** Removing any level shift *** 
ITER      Energy       Delta-E        Grad      Rot      Max-DP    RMS-DP
  7  -2722.97831570  -0.3654446259  0.001431  0.001431  0.007492  0.000148
               *** Restarting incremental Fock matrix formation ***
  8  -2722.97813279   0.0001829161  0.000497  0.001150  0.004187  0.000093
  9  -2722.97814927  -0.0000164785  0.000261  0.000776  0.001812  0.000049
 10  -2722.97815234  -0.0000030717  0.000132  0.000198  0.000410  0.000016
 11  -2722.97815293  -0.0000005869  0.000059  0.000101  0.000339  0.000007
 12  -2722.97815302  -0.0000000922  0.000025  0.000054  0.000196  0.000004
 13  -2722.97815305  -0.0000000356  0.000017  0.000005  0.000029  0.000001
 14  -2722.97815305   0.0000000026  0.000010  0.000004  0.000009  0.000000
                  ***Gradient check signals convergence***
              ***Rediagonalizing the Fockian in SOSCF/NRSCF***

               *****************************************************
               *                     SUCCESS                       *
               *           SCF CONVERGED AFTER  15 CYCLES          *
               *****************************************************

Old exchange energy                            =    -57.195658609 Eh
New exchange energy                            =    -57.195692675 Eh
Exchange energy change after final integration =     -0.000034066 Eh
Total energy after final integration           =  -2722.978187122 Eh
Final COS-X integration done in                =     3.304 sec

----------------
TOTAL SCF ENERGY
----------------

Total Energy       :        -2722.97818712 Eh          -74096.00344 eV

Components:
Nuclear Repulsion  :          701.92465839 Eh           19100.34100 eV
Electronic Energy  :        -3424.90284552 Eh          -93196.34444 eV
One Electron Energy:        -5181.76378854 Eh         -141002.96114 eV
Two Electron Energy:         1756.86094302 Eh           47806.61670 eV
Max COSX asymmetry :            0.00001689 Eh               0.00046 eV

Virial components:
Potential Energy   :        -5441.69268936 Eh         -148075.98612 eV
Kinetic Energy     :         2718.71450223 Eh           73979.98268 eV
Virial Ratio       :            2.00156827


DFT components:
N(Alpha)           :       45.000013121564 electrons
N(Beta)            :       45.000013121564 electrons
N(Total)           :       90.000026243128 electrons
E(X)               :      -76.650248999366 Eh       
E(C)               :       -4.655833317086 Eh       
E(XC)              :      -81.306082316453 Eh       
DFET-embed. en.    :        0.000000000000 Eh       

---------------
SCF CONVERGENCE
---------------

  Last Energy change         ...   -4.9226e-09  Tolerance :   1.0000e-08
  Last MAX-Density change    ...    4.4409e-15  Tolerance :   1.0000e-07
  Last RMS-Density change    ...    7.9809e-17  Tolerance :   5.0000e-09
  Last Orbital Gradient      ...    3.8709e-07  Tolerance :   1.0000e-05
  Last Orbital Rotation      ...    8.2675e-07  Tolerance :   1.0000e-05

             **** THE GBW FILE WAS UPDATED (PBEh_3c_opt__PBEh3c_freq_2cores_sp___C3H9GeNOS.gbw) ****
             **** DENSITY PBEh_3c_opt__PBEh3c_freq_2cores_sp___C3H9GeNOS.scfp WAS UPDATED ****
             **** ENERGY FILE WAS UPDATED (PBEh_3c_opt__PBEh3c_freq_2cores_sp___C3H9GeNOS.en.tmp) ****
             **** THE GBW FILE WAS UPDATED (PBEh_3c_opt__PBEh3c_freq_2cores_sp___C3H9GeNOS.gbw) ****
             **** DENSITY PBEh_3c_opt__PBEh3c_freq_2cores_sp___C3H9GeNOS.scfp WAS UPDATED ****
----------------
ORBITAL ENERGIES
----------------

  NO   OCC          E(Eh)            E(eV) 
   0   2.0000    -400.285429    -10892.3203 
   1   2.0000     -89.578004     -2437.5414 
   2   2.0000     -50.415457     -1371.8743 
   3   2.0000     -44.830605     -1219.9028 
   4   2.0000     -44.830023     -1219.8869 
   5   2.0000     -44.828735     -1219.8519 
   6   2.0000     -19.483179      -530.1643 
   7   2.0000     -14.621215      -397.8635 
   8   2.0000     -10.481332      -285.2115 
   9   2.0000     -10.470191      -284.9084 
  10   2.0000     -10.466654      -284.8121 
  11   2.0000      -8.217310      -223.6044 
  12   2.0000      -6.515727      -177.3019 
  13   2.0000      -6.107721      -166.1995 
  14   2.0000      -6.105111      -166.1285 
  15   2.0000      -6.100478      -166.0024 
  16   2.0000      -4.636966      -126.1783 
  17   2.0000      -4.636342      -126.1613 
  18   2.0000      -4.634019      -126.0981 
  19   2.0000      -1.371064       -37.3086 
  20   2.0000      -1.365938       -37.1691 
  21   2.0000      -1.363897       -37.1135 
  22   2.0000      -1.362301       -37.0701 
  23   2.0000      -1.361605       -37.0512 
  24   2.0000      -1.104927       -30.0666 
  25   2.0000      -0.965018       -26.2595 
  26   2.0000      -0.864679       -23.5291 
  27   2.0000      -0.799931       -21.7672 
  28   2.0000      -0.715584       -19.4720 
  29   2.0000      -0.674868       -18.3641 
  30   2.0000      -0.605086       -16.4652 
  31   2.0000      -0.557325       -15.1656 
  32   2.0000      -0.539019       -14.6674 
  33   2.0000      -0.498258       -13.5583 
  34   2.0000      -0.491908       -13.3855 
  35   2.0000      -0.479106       -13.0372 
  36   2.0000      -0.458160       -12.4672 
  37   2.0000      -0.439073       -11.9478 
  38   2.0000      -0.429612       -11.6903 
  39   2.0000      -0.402554       -10.9540 
  40   2.0000      -0.367342        -9.9959 
  41   2.0000      -0.360028        -9.7969 
  42   2.0000      -0.317001        -8.6260 
  43   2.0000      -0.288946        -7.8626 
  44   2.0000      -0.282779        -7.6948 
  45   0.0000       0.050485         1.3738 
  46   0.0000       0.065129         1.7723 
  47   0.0000       0.071563         1.9473 
  48   0.0000       0.107885         2.9357 
  49   0.0000       0.138519         3.7693 
  50   0.0000       0.157345         4.2816 
  51   0.0000       0.178651         4.8613 
  52   0.0000       0.180801         4.9198 
  53   0.0000       0.198971         5.4143 
  54   0.0000       0.203991         5.5509 
  55   0.0000       0.211428         5.7532 
  56   0.0000       0.219699         5.9783 
  57   0.0000       0.234611         6.3841 
  58   0.0000       0.258457         7.0330 
  59   0.0000       0.277765         7.5584 
  60   0.0000       0.286378         7.7928 
  61   0.0000       0.306567         8.3421 
  62   0.0000       0.367860        10.0100 
  63   0.0000       0.395473        10.7614 
  64   0.0000       0.415992        11.3197 
  65   0.0000       0.455848        12.4043 
  66   0.0000       0.474620        12.9151 
  67   0.0000       0.488130        13.2827 
  68   0.0000       0.502706        13.6793 
  69   0.0000       0.528300        14.3758 
  70   0.0000       0.535900        14.5826 
  71   0.0000       0.562337        15.3020 
  72   0.0000       0.572830        15.5875 
  73   0.0000       0.602267        16.3885 
  74   0.0000       0.610296        16.6070 
  75   0.0000       0.625116        17.0103 
  76   0.0000       0.649249        17.6670 
  77   0.0000       0.674619        18.3573 
  78   0.0000       0.733617        19.9627 
  79   0.0000       0.748988        20.3810 
  80   0.0000       0.781743        21.2723 
  81   0.0000       0.805910        21.9299 
  82   0.0000       0.832743        22.6601 
  83   0.0000       0.844358        22.9762 
  84   0.0000       0.882141        24.0043 
  85   0.0000       0.912384        24.8272 
  86   0.0000       0.965593        26.2751 
  87   0.0000       0.975334        26.5402 
  88   0.0000       0.986622        26.8474 
  89   0.0000       0.995812        27.0974 
  90   0.0000       1.020181        27.7605 
  91   0.0000       1.021859        27.8062 
  92   0.0000       1.031727        28.0747 
  93   0.0000       1.040453        28.3122 
  94   0.0000       1.061169        28.8759 
  95   0.0000       1.076687        29.2981 
  96   0.0000       1.111112        30.2349 
  97   0.0000       1.138478        30.9796 
  98   0.0000       1.159844        31.5609 
  99   0.0000       1.206377        32.8272 
 100   0.0000       1.220008        33.1981 
 101   0.0000       1.285986        34.9935 
 102   0.0000       1.304573        35.4992 
 103   0.0000       1.328930        36.1620 
 104   0.0000       1.396317        37.9957 
 105   0.0000       1.438028        39.1307 
 106   0.0000       1.516314        41.2610 
 107   0.0000       1.556410        42.3521 
 108   0.0000       1.658588        45.1325 
 109   0.0000       1.760664        47.9101 
 110   0.0000       1.767956        48.1085 
 111   0.0000       1.796020        48.8722 
 112   0.0000       1.843178        50.1554 
 113   0.0000       1.879987        51.1571 
 114   0.0000       1.923812        52.3496 
 115   0.0000       1.990526        54.1650 
 116   0.0000       2.033854        55.3440 
 117   0.0000       2.099575        57.1323 
 118   0.0000       2.127943        57.9043 
 119   0.0000       2.170061        59.0504 
 120   0.0000       2.189423        59.5772 
 121   0.0000       2.206440        60.0403 
 122   0.0000       2.277841        61.9832 
 123   0.0000       2.289498        62.3004 
 124   0.0000       2.307423        62.7882 
 125   0.0000       2.331795        63.4514 
 126   0.0000       2.415128        65.7190 
 127   0.0000       2.456288        66.8390 
 128   0.0000       2.475024        67.3488 
 129   0.0000       2.508488        68.2594 
 130   0.0000       2.594803        70.6082 
 131   0.0000       2.663392        72.4746 
 132   0.0000       2.697600        73.4054 
 133   0.0000       2.718575        73.9762 
 134   0.0000       2.768875        75.3449 
 135   0.0000       2.839333        77.2622 
 136   0.0000       2.904712        79.0412 
 137   0.0000       3.024098        82.2899 
 138   0.0000      13.683679       372.3518 
 139   0.0000      13.703622       372.8945 
 140   0.0000      13.976214       380.3121 
 141   0.0000      19.217129       522.9247 
 142   0.0000      25.638617       697.6622 

                    ********************************
                    * MULLIKEN POPULATION ANALYSIS *
                    ********************************

-----------------------
MULLIKEN ATOMIC CHARGES
-----------------------
   0 N :   -0.764035
   1 C :   -0.297051
   2 C :   -0.149691
   3 O :   -0.600240
   4 Ge:    0.832037
   5 S :   -0.216921
   6 C :   -0.758215
   7 H :    0.349124
   8 H :    0.216082
   9 H :    0.214251
  10 H :    0.209220
  11 H :    0.187419
  12 H :    0.000969
  13 H :    0.250818
  14 H :    0.267078
  15 H :    0.259156
Sum of atomic charges:   -0.0000000

--------------------------------
MULLIKEN REDUCED ORBITAL CHARGES
--------------------------------
  0 N s       :     3.593245  s :     3.593245
      pz      :     1.451921  p :     4.144383
      px      :     1.204303
      py      :     1.488159
      dz2     :     0.002733  d :     0.026408
      dxz     :     0.007128
      dyz     :     0.006305
      dx2y2   :     0.005848
      dxy     :     0.004395
  1 C s       :     3.283425  s :     3.283425
      pz      :     0.894762  p :     2.954950
      px      :     0.903931
      py      :     1.156257
      dz2     :     0.016011  d :     0.058675
      dxz     :     0.012869
      dyz     :     0.005288
      dx2y2   :     0.007292
      dxy     :     0.017214
  2 C s       :     3.253541  s :     3.253541
      pz      :     0.974234  p :     2.826252
      px      :     0.872977
      py      :     0.979041
      dz2     :     0.012253  d :     0.069898
      dxz     :     0.015282
      dyz     :     0.008426
      dx2y2   :     0.018566
      dxy     :     0.015370
  3 O s       :     3.814023  s :     3.814023
      pz      :     1.670825  p :     4.762778
      px      :     1.431527
      py      :     1.660426
      dz2     :     0.004706  d :     0.023439
      dxz     :     0.006080
      dyz     :     0.003673
      dx2y2   :     0.003327
      dxy     :     0.005653
  4 Ges       :     7.124841  s :     7.124841
      pz      :     4.483175  p :    13.750810
      px      :     4.559676
      py      :     4.707959
      dz2     :     2.054125  d :    10.292312
      dxz     :     2.064175
      dyz     :     2.042556
      dx2y2   :     2.055351
      dxy     :     2.076105
  5 S s       :     5.855869  s :     5.855869
      pz      :     3.831197  p :    10.299602
      px      :     3.099856
      py      :     3.368549
      dz2     :     0.009089  d :     0.061449
      dxz     :     0.005200
      dyz     :     0.005745
      dx2y2   :     0.009334
      dxy     :     0.032082
  6 C s       :     3.436623  s :     3.436623
      pz      :     1.170640  p :     3.283650
      px      :     1.047403
      py      :     1.065608
      dz2     :     0.009199  d :     0.037942
      dxz     :     0.002486
      dyz     :     0.010959
      dx2y2   :     0.006077
      dxy     :     0.009222
  7 H s       :     0.650876  s :     0.650876
  8 H s       :     0.783918  s :     0.783918
  9 H s       :     0.785749  s :     0.785749
 10 H s       :     0.790780  s :     0.790780
 11 H s       :     0.812581  s :     0.812581
 12 H s       :     0.999031  s :     0.999031
 13 H s       :     0.749182  s :     0.749182
 14 H s       :     0.732922  s :     0.732922
 15 H s       :     0.740844  s :     0.740844


                     *******************************
                     * LOEWDIN POPULATION ANALYSIS *
                     *******************************

----------------------
LOEWDIN ATOMIC CHARGES
----------------------
   0 N :   -0.414351
   1 C :   -0.163926
   2 C :   -0.086720
   3 O :   -0.315794
   4 Ge:    0.229034
   5 S :    0.064349
   6 C :   -0.456078
   7 H :    0.251245
   8 H :    0.115702
   9 H :    0.123422
  10 H :    0.118530
  11 H :    0.105030
  12 H :    0.013292
  13 H :    0.135438
  14 H :    0.143730
  15 H :    0.137098

-------------------------------
LOEWDIN REDUCED ORBITAL CHARGES
-------------------------------
  0 N s       :     3.178106  s :     3.178106
      pz      :     1.443707  p :     4.180673
      px      :     1.268641
      py      :     1.468326
      dz2     :     0.005466  d :     0.055572
      dxz     :     0.017522
      dyz     :     0.010463
      dx2y2   :     0.012359
      dxy     :     0.009761
  1 C s       :     2.906688  s :     2.906688
      pz      :     1.028825  p :     3.136841
      px      :     0.985788
      py      :     1.122228
      dz2     :     0.035445  d :     0.120397
      dxz     :     0.028363
      dyz     :     0.009880
      dx2y2   :     0.014354
      dxy     :     0.032355
  2 C s       :     2.909692  s :     2.909692
      pz      :     1.068508  p :     3.030836
      px      :     0.941982
      py      :     1.020346
      dz2     :     0.028346  d :     0.146193
      dxz     :     0.031708
      dyz     :     0.016407
      dx2y2   :     0.037042
      dxy     :     0.032689
  3 O s       :     3.473978  s :     3.473978
      pz      :     1.674806  p :     4.794184
      px      :     1.454047
      py      :     1.665331
      dz2     :     0.008803  d :     0.047633
      dxz     :     0.013160
      dyz     :     0.005133
      dx2y2   :     0.008701
      dxy     :     0.011836
  4 Ges       :     7.008288  s :     7.008288
      pz      :     4.592517  p :    14.080029
      px      :     4.685379
      py      :     4.802133
      dz2     :     2.127513  d :    10.682649
      dxz     :     2.179844
      dyz     :     2.084936
      dx2y2   :     2.114207
      dxy     :     2.176149
  5 S s       :     5.590692  s :     5.590692
      pz      :     3.780025  p :    10.269780
      px      :     3.085605
      py      :     3.404150
      dz2     :     0.011632  d :     0.075179
      dxz     :     0.006302
      dyz     :     0.005950
      dx2y2   :     0.011128
      dxy     :     0.040167
  6 C s       :     3.014695  s :     3.014695
      pz      :     1.174684  p :     3.374506
      px      :     1.085424
      py      :     1.114398
      dz2     :     0.015286  d :     0.066877
      dxz     :     0.004510
      dyz     :     0.018932
      dx2y2   :     0.010962
      dxy     :     0.017186
  7 H s       :     0.748755  s :     0.748755
  8 H s       :     0.884298  s :     0.884298
  9 H s       :     0.876578  s :     0.876578
 10 H s       :     0.881470  s :     0.881470
 11 H s       :     0.894970  s :     0.894970
 12 H s       :     0.986708  s :     0.986708
 13 H s       :     0.864562  s :     0.864562
 14 H s       :     0.856270  s :     0.856270
 15 H s       :     0.862902  s :     0.862902


                      *****************************
                      * MAYER POPULATION ANALYSIS *
                      *****************************

  NA   - Mulliken gross atomic population
  ZA   - Total nuclear charge
  QA   - Mulliken gross atomic charge
  VA   - Mayer's total valence
  BVA  - Mayer's bonded valence
  FA   - Mayer's free valence

  ATOM       NA         ZA         QA         VA         BVA        FA
  0 N      7.7640     7.0000    -0.7640     2.8557     2.8557     0.0000
  1 C      6.2971     6.0000    -0.2971     3.7490     3.7490     0.0000
  2 C      6.1497     6.0000    -0.1497     3.7448     3.7448    -0.0000
  3 O      8.6002     8.0000    -0.6002     1.9809     1.9809    -0.0000
  4 Ge    31.1680    32.0000     0.8320     3.8723     3.8723    -0.0000
  5 S     16.2169    16.0000    -0.2169     2.1104     2.1104    -0.0000
  6 C      6.7582     6.0000    -0.7582     3.7181     3.7181    -0.0000
  7 H      0.6509     1.0000     0.3491     0.8492     0.8492     0.0000
  8 H      0.7839     1.0000     0.2161     0.8980     0.8980    -0.0000
  9 H      0.7857     1.0000     0.2143     0.9101     0.9101     0.0000
 10 H      0.7908     1.0000     0.2092     0.9092     0.9092    -0.0000
 11 H      0.8126     1.0000     0.1874     0.9071     0.9071    -0.0000
 12 H      0.9990     1.0000     0.0010     0.9797     0.9797    -0.0000
 13 H      0.7492     1.0000     0.2508     0.8900     0.8900     0.0000
 14 H      0.7329     1.0000     0.2671     0.8901     0.8901     0.0000
 15 H      0.7408     1.0000     0.2592     0.8842     0.8842     0.0000

  Mayer bond orders larger than 0.100000
B(  0-N ,  1-C ) :   0.9807 B(  0-N ,  4-Ge) :   0.9882 B(  0-N ,  7-H ) :   0.8278 
B(  1-C ,  2-C ) :   0.9569 B(  1-C ,  8-H ) :   0.9048 B(  1-C ,  9-H ) :   0.9172 
B(  2-C ,  3-O ) :   0.9759 B(  2-C , 10-H ) :   0.9136 B(  2-C , 11-H ) :   0.9050 
B(  3-O ,  4-Ge) :   0.9223 B(  4-Ge,  5-S ) :   1.0028 B(  4-Ge, 12-H ) :   0.8951 
B(  5-S ,  6-C ) :   1.0050 B(  6-C , 13-H ) :   0.8968 B(  6-C , 14-H ) :   0.9019 
B(  6-C , 15-H ) :   0.8947 

-------
TIMINGS
-------

Total SCF time: 0 days 0 hours 0 min 33 sec 

Total time                  ....      33.559 sec
Sum of individual times     ....      33.445 sec  ( 99.7%)

Fock matrix formation       ....      32.239 sec  ( 96.1%)
  Split-RI-J                ....       2.422 sec  (  7.5% of F)
  Chain of spheres X        ....      24.286 sec  ( 75.3% of F)
  XC integration            ....       5.498 sec  ( 17.1% of F)
    Basis function eval.    ....       2.213 sec  ( 40.3% of XC)
    Density eval.           ....       1.155 sec  ( 21.0% of XC)
    XC-Functional eval.     ....       0.643 sec  ( 11.7% of XC)
    XC-Potential eval.      ....       1.271 sec  ( 23.1% of XC)
Diagonalization             ....       0.040 sec  (  0.1%)
Density matrix formation    ....       0.006 sec  (  0.0%)
Population analysis         ....       0.003 sec  (  0.0%)
Initial guess               ....       0.014 sec  (  0.0%)
Orbital Transformation      ....       0.000 sec  (  0.0%)
Orbital Orthonormalization  ....       0.000 sec  (  0.0%)
DIIS solution               ....       0.021 sec  (  0.1%)
SOSCF solution              ....       0.027 sec  (  0.1%)
Grid generation             ....       1.094 sec  (  3.3%)

Maximum memory used throughout the entire SCF-calculation: 53.2 MB


-------------------------------------------------------------------------------
                          DFT DISPERSION CORRECTION                            
                                                                               
                              DFTD3 V3.1  Rev 1                                
                          USING Becke-Johnson damping                          
-------------------------------------------------------------------------------
The PBEh-3c composite method is recognized
Using three-body term ABC
Active option DFTDOPT                   ...         4   

molecular C6(AA) [au] = 3610.501144 


            DFT-D V3
 parameters
 s6 scaling factor         :     1.0000 
 a1 scaling factor         :     0.4860 
 s8 scaling factor         :     0.0000 
 a2 scaling factor         :     4.5000 
 Damping factor alpha9(ATM):    16.0000 
 ad hoc parameters k1-k3   :    16.0000     1.3333    -4.0000 

 Edisp/kcal,au: -4.969222631952  -0.007918959486 
 E6   /kcal   :  -4.980821331 
 E8   /kcal   :  -0.000000000 
 E6(ABC)      :   0.011598699 
 % E8         :   0.000000000 
 % E6(ABC)    :  -0.233410739 

-------------------------   ----------------
Dispersion correction           -0.007918959
-------------------------   ----------------

------------------   -----------------
gCP correction             0.034778432
------------------   -----------------

-------------------------   --------------------
FINAL SINGLE POINT ENERGY     -2722.951327649056
-------------------------   --------------------


                            ***************************************
                            *     ORCA property calculations      *
                            ***************************************

                                    ---------------------
                                    Active property flags
                                    ---------------------
   (+) Dipole Moment


------------------------------------------------------------------------------
                       ORCA ELECTRIC PROPERTIES CALCULATION
------------------------------------------------------------------------------

Dipole Moment Calculation                       ... on
Quadrupole Moment Calculation                   ... off
Polarizability Calculation                      ... off
GBWName                                         ... PBEh_3c_opt__PBEh3c_freq_2cores_sp___C3H9GeNOS.gbw
Electron density                                ... PBEh_3c_opt__PBEh3c_freq_2cores_sp___C3H9GeNOS.scfp
The origin for moment calculation is the CENTER OF MASS  = ( 0.462499, -0.067805  0.158920)

-------------
DIPOLE MOMENT
-------------
                                X             Y             Z
Electronic contribution:      1.66880      -3.13918      -2.12083
Nuclear contribution   :     -1.62801       3.19660       1.77772
                        -----------------------------------------
Total Dipole Moment    :      0.04079       0.05743      -0.34311
                        -----------------------------------------
Magnitude (a.u.)       :      0.35027
Magnitude (Debye)      :      0.89031



--------------------
Rotational spectrum 
--------------------
 
Rotational constants in cm-1:     0.125500     0.032978     0.031355 
Rotational constants in MHz :  3762.394660   988.662611   940.000609 

 Dipole components along the rotational axes: 
x,y,z [a.u.] :    -0.058224     0.334297     0.086858 
x,y,z [Debye]:    -0.147993     0.849715     0.220775 

 


           ************************************************************
           *        Program running with 2 parallel MPI-processes     *
           *              working on a common directory               *
           ************************************************************

-------------------------------------------------------------------------------
                               ORCA SCF HESSIAN
-------------------------------------------------------------------------------

                   --------- SHARK INITIALIZATION DONE ---------

Hessian of the Kohn-Sham DFT energy:
Kohn-Sham wavefunction type                      ... RKS
Hartree-Fock exchange scaling                    ...    0.420
Number of operators                              ...    1
Number of atoms                                  ...   16
Basis set dimensions                             ...  143
Integral neglect threshold                       ... 2.5e-11
Integral primitive cutoff                        ... 2.5e-12

Setting up DFT Hessian calculations              ... 

HESS GRID
---------

General Integration Accuracy     IntAcc      ... 4.629
Radial Grid Type                 RadialGrid  ... OptM3 with GC (2021)
Angular Grid (max. ang.)         AngularGrid ... 5 (Lebedev-434)
Angular grid pruning method      GridPruning ... 4 (adaptive)
Weight generation scheme         WeightScheme... Becke
Basis function cutoff            BFCut       ... 1.0000e-11
Integration weight cutoff        WCut        ... 1.0000e-14
Angular grids for H and He will be reduced by one unit
Partially contracted basis set               ... off
Rotationally invariant grid construction     ... off

Total number of grid points                  ...   120759
Total number of batches                      ...     1896
Average number of points per batch           ...       63
Average number of grid points per atom       ...     7547

Building densities                               ... done   (      0.0 sec)
Calculating rho(r) on the grid                   ... done   (      0.2 sec)
Building xc-kernel on the grid                   ... done   (      0.1 sec)
                                                     done   (      1.3 sec)

Nuclear repulsion Hessian  (SHARK)               ... done   (      0.0 sec)

----------------------------------------------
Forming right-hand sides of CP-SCF equations     ...
----------------------------------------------
One electron integral derivatives  (SHARK)       ... done   (      0.1 sec)
Transforming the overlap derivative matrices     ... done   (      0.0 sec)
Making the Q(x) pseudodensities                  ... done   (      0.0 sec)
Adding the E*S(x)*S(y) terms to the Hessian      ... done   (      0.0 sec)
Calculating energy weighted overlap derivatives  ... done   (      0.0 sec)
Two electron integral derivatives (SHARK-RI)     ... done   (      7.8 sec)
Exchange-correlation integral derivatives        ... done   (     21.9 sec)
tr(F(y)Q(x)) contribution to the Hessian         ... done   (      0.0 sec)
Response fock operator R(S(x)) (SHARK-RI)        ... done   (     10.0 sec)
XC Response fock operator R(S(x))                ... done   (     11.2 sec)
tr(F(y)S(x)) contribution to the Hessian         ... done   (      0.0 sec)
Transforming and finalizing RHSs                 ... done   (      0.0 sec)

----------------------------------------------
Solving the CP-SCF equations (RI)                ...
----------------------------------------------
     CP-SCF ITERATION   0:   2.0281e-01 (   4.3 sec   0/ 48 done)
     CP-SCF ITERATION   1:   2.0620e-02 (   4.1 sec   0/ 48 done)
     CP-SCF ITERATION   2:   6.8567e-03 (   4.1 sec   0/ 48 done)
     CP-SCF ITERATION   3:   2.5173e-03 (   4.1 sec   0/ 48 done)
     CP-SCF ITERATION   4:   7.0290e-04 (   4.2 sec   0/ 48 done)
     CP-SCF ITERATION   5:   2.4183e-04 (   4.1 sec  27/ 48 done)
     CP-SCF ITERATION   6:   5.9536e-05 (   2.2 sec  48/ 48 done)
                    *** THE CP-SCF HAS CONVERGED ***

                                                 ... done   (     27.4 sec)
Forming perturbed density Hessian contributions  ... done   (      0.0 sec)
2nd integral derivative contribs (SHARK-RI)      ... done   (     39.1 sec)
Exchange-correlation Hessian                     ... done   (     21.9 sec)
Dispersion correction in the Hessian             ... done   (      1.6 sec)
gCP correction in the Hessian                    ... done   (      0.0 sec)
Dipole derivatives                               ... (center of mass:  0.462499, -0.067805  0.158920)done   (      0.1 sec)

Total SCF Hessian time: 0 days 0 hours 2 min 22 sec 

Writing the Hessian file to the disk             ... done


Maximum memory used throughout the entire SCFHESS-calculation: 90.7 MB

-----------------------
VIBRATIONAL FREQUENCIES
-----------------------

Scaling factor for frequencies =  1.000000000  (already applied!)

   0:         0.00 cm**-1
   1:         0.00 cm**-1
   2:         0.00 cm**-1
   3:         0.00 cm**-1
   4:         0.00 cm**-1
   5:         0.00 cm**-1
   6:        40.84 cm**-1
   7:        77.98 cm**-1
   8:        97.45 cm**-1
   9:       135.12 cm**-1
  10:       160.77 cm**-1
  11:       211.73 cm**-1
  12:       253.76 cm**-1
  13:       361.00 cm**-1
  14:       410.56 cm**-1
  15:       467.41 cm**-1
  16:       587.76 cm**-1
  17:       686.92 cm**-1
  18:       708.77 cm**-1
  19:       737.36 cm**-1
  20:       752.91 cm**-1
  21:       792.14 cm**-1
  22:       923.61 cm**-1
  23:       944.74 cm**-1
  24:      1021.66 cm**-1
  25:      1029.74 cm**-1
  26:      1088.16 cm**-1
  27:      1133.15 cm**-1
  28:      1174.23 cm**-1
  29:      1269.02 cm**-1
  30:      1293.87 cm**-1
  31:      1387.18 cm**-1
  32:      1416.41 cm**-1
  33:      1427.27 cm**-1
  34:      1445.78 cm**-1
  35:      1532.97 cm**-1
  36:      1541.71 cm**-1
  37:      1560.11 cm**-1
  38:      1574.68 cm**-1
  39:      2233.89 cm**-1
  40:      3062.53 cm**-1
  41:      3090.21 cm**-1
  42:      3138.77 cm**-1
  43:      3143.53 cm**-1
  44:      3161.82 cm**-1
  45:      3236.26 cm**-1
  46:      3242.56 cm**-1
  47:      3699.86 cm**-1


------------
NORMAL MODES
------------

These modes are the Cartesian displacements weighted by the diagonal matrix
M(i,i)=1/sqrt(m[i]) where m[i] is the mass of the displaced atom
Thus, these vectors are normalized but *not* orthogonal

                  0          1          2          3          4          5    
      0       0.000000   0.000000   0.000000   0.000000   0.000000   0.000000
      1       0.000000   0.000000   0.000000   0.000000   0.000000   0.000000
      2       0.000000   0.000000   0.000000   0.000000   0.000000   0.000000
      3       0.000000   0.000000   0.000000   0.000000   0.000000   0.000000
      4       0.000000   0.000000   0.000000   0.000000   0.000000   0.000000
      5       0.000000   0.000000   0.000000   0.000000   0.000000   0.000000
      6       0.000000   0.000000   0.000000   0.000000   0.000000   0.000000
      7       0.000000   0.000000   0.000000   0.000000   0.000000   0.000000
      8       0.000000   0.000000   0.000000   0.000000   0.000000   0.000000
      9       0.000000   0.000000   0.000000   0.000000   0.000000   0.000000
     10       0.000000   0.000000   0.000000   0.000000   0.000000   0.000000
     11       0.000000   0.000000   0.000000   0.000000   0.000000   0.000000
     12       0.000000   0.000000   0.000000   0.000000   0.000000   0.000000
     13       0.000000   0.000000   0.000000   0.000000   0.000000   0.000000
     14       0.000000   0.000000   0.000000   0.000000   0.000000   0.000000
     15       0.000000   0.000000   0.000000   0.000000   0.000000   0.000000
     16       0.000000   0.000000   0.000000   0.000000   0.000000   0.000000
     17       0.000000   0.000000   0.000000   0.000000   0.000000   0.000000
     18       0.000000   0.000000   0.000000   0.000000   0.000000   0.000000
     19       0.000000   0.000000   0.000000   0.000000   0.000000   0.000000
     20       0.000000   0.000000   0.000000   0.000000   0.000000   0.000000
     21       0.000000   0.000000   0.000000   0.000000   0.000000   0.000000
     22       0.000000   0.000000   0.000000   0.000000   0.000000   0.000000
     23       0.000000   0.000000   0.000000   0.000000   0.000000   0.000000
     24       0.000000   0.000000   0.000000   0.000000   0.000000   0.000000
     25       0.000000   0.000000   0.000000   0.000000   0.000000   0.000000
     26       0.000000   0.000000   0.000000   0.000000   0.000000   0.000000
     27       0.000000   0.000000   0.000000   0.000000   0.000000   0.000000
     28       0.000000   0.000000   0.000000   0.000000   0.000000   0.000000
     29       0.000000   0.000000   0.000000   0.000000   0.000000   0.000000
     30       0.000000   0.000000   0.000000   0.000000   0.000000   0.000000
     31       0.000000   0.000000   0.000000   0.000000   0.000000   0.000000
     32       0.000000   0.000000   0.000000   0.000000   0.000000   0.000000
     33       0.000000   0.000000   0.000000   0.000000   0.000000   0.000000
     34       0.000000   0.000000   0.000000   0.000000   0.000000   0.000000
     35       0.000000   0.000000   0.000000   0.000000   0.000000   0.000000
     36       0.000000   0.000000   0.000000   0.000000   0.000000   0.000000
     37       0.000000   0.000000   0.000000   0.000000   0.000000   0.000000
     38       0.000000   0.000000   0.000000   0.000000   0.000000   0.000000
     39       0.000000   0.000000   0.000000   0.000000   0.000000   0.000000
     40       0.000000   0.000000   0.000000   0.000000   0.000000   0.000000
     41       0.000000   0.000000   0.000000   0.000000   0.000000   0.000000
     42       0.000000   0.000000   0.000000   0.000000   0.000000   0.000000
     43       0.000000   0.000000   0.000000   0.000000   0.000000   0.000000
     44       0.000000   0.000000   0.000000   0.000000   0.000000   0.000000
     45       0.000000   0.000000   0.000000   0.000000   0.000000   0.000000
     46       0.000000   0.000000   0.000000   0.000000   0.000000   0.000000
     47       0.000000   0.000000   0.000000   0.000000   0.000000   0.000000
                  6          7          8          9         10         11    
      0       0.047694   0.027111  -0.027084  -0.103630   0.022551  -0.105338
      1      -0.021869  -0.067370  -0.033023  -0.157034   0.104986  -0.039111
      2      -0.028810  -0.010164  -0.012359  -0.035727  -0.049335   0.036661
      3      -0.006322   0.058180  -0.006375  -0.042647   0.036003  -0.103514
      4      -0.077846   0.204688  -0.034703  -0.071713  -0.089472   0.020426
      5      -0.102734   0.002045   0.022726   0.050764   0.015595   0.024495
      6      -0.100171   0.100616   0.033193   0.096151   0.053322  -0.085780
      7      -0.005716   0.134494   0.029930   0.079129   0.081180  -0.031713
      8      -0.076527  -0.009737   0.010619   0.006896   0.002848   0.024106
      9      -0.059682  -0.051061   0.037280   0.071083   0.045050   0.005551
     10       0.067924  -0.072525   0.035946   0.044118   0.074032   0.090775
     11       0.021877  -0.035550   0.010136  -0.017831   0.033517  -0.002968
     12       0.004735  -0.002100   0.000635   0.008701  -0.026751  -0.037668
     13       0.018633  -0.084733   0.002702   0.027781  -0.038421   0.011061
     14       0.063198   0.003573  -0.017385  -0.057961  -0.027863  -0.038593
     15       0.017803  -0.087082  -0.002766   0.002500  -0.041712   0.089654
     16       0.001356   0.032921   0.006223   0.030902  -0.033649  -0.097522
     17       0.094822   0.066019   0.012234   0.147624   0.046379   0.044095
     18       0.055072   0.052639  -0.034092  -0.069754   0.058716   0.280303
     19      -0.059847   0.150805  -0.027543  -0.091595   0.070357   0.111286
     20      -0.320592  -0.087705   0.023152  -0.012287   0.006958   0.036286
     21       0.076844   0.070388  -0.040755  -0.226065   0.163026  -0.239032
     22       0.021275  -0.237458  -0.016433  -0.295231   0.487398  -0.266453
     23       0.037674  -0.225400   0.004877  -0.259801   0.502927  -0.306335
     24       0.067957  -0.146116   0.014394  -0.064589   0.247403  -0.180761
     25      -0.131033   0.354168  -0.062319  -0.090958  -0.265757   0.082201
     26      -0.117158   0.028326   0.072563   0.197431   0.087592   0.005548
     27      -0.056321   0.260182  -0.039043  -0.056840  -0.185082  -0.029396
     28      -0.127371   0.337999  -0.061167  -0.090667  -0.253519   0.078747
     29      -0.169669   0.018300   0.001463   0.011155  -0.067006   0.063736
     30      -0.118222   0.053569   0.051126   0.142071   0.068264  -0.052322
     31      -0.035855   0.291324   0.056888   0.193171   0.157812  -0.156377
     32      -0.117307   0.018101   0.049736   0.132089   0.067772  -0.003513
     33      -0.182601   0.300629   0.042575   0.177270   0.079158  -0.201007
     34       0.018613   0.092788   0.044138   0.107611   0.113773  -0.026090
     35      -0.092928  -0.023658  -0.039992  -0.138108  -0.114123   0.085385
     36       0.011078   0.052418  -0.006753   0.091859  -0.146321  -0.113950
     37       0.010261  -0.068127  -0.001774   0.056300  -0.061047  -0.018419
     38       0.111579   0.022076  -0.003502  -0.067010  -0.082543  -0.041887
     39       0.006526   0.148229   0.282277  -0.382302   0.055451   0.453878
     40       0.116816   0.232660   0.256093  -0.218910   0.022855   0.123602
     41      -0.524180  -0.190169  -0.330035   0.156948   0.063466   0.011177
     42       0.034555  -0.008512  -0.018115  -0.036251   0.009779   0.173546
     43      -0.008409   0.279742   0.102505  -0.257248   0.126583   0.315272
     44      -0.271722  -0.027105   0.586326  -0.380688  -0.110289   0.061906
     45       0.150236   0.104466  -0.372105   0.154148   0.169047   0.341399
     46      -0.314677   0.020538  -0.436995   0.097364   0.135534   0.083806
     47      -0.414094  -0.135315  -0.140901   0.065552   0.034469   0.026916
                 12         13         14         15         16         17    
      0      -0.039100  -0.072042  -0.105180   0.134709  -0.146322  -0.030857
      1       0.010479  -0.194299   0.038597   0.088028   0.073452   0.057426
      2       0.019281  -0.254634   0.093521   0.008040  -0.007235  -0.064945
      3      -0.048806   0.062491  -0.152293   0.127249  -0.197121   0.017039
      4      -0.103630   0.068281   0.043076  -0.059635   0.027929   0.007367
      5       0.028255   0.005282   0.065981  -0.089643  -0.100772   0.046062
      6       0.067926   0.037873  -0.174857   0.134172   0.081895   0.071860
      7       0.118061  -0.051206   0.089727  -0.066965  -0.064024  -0.016729
      8      -0.039687   0.048496   0.042028  -0.062621  -0.176185   0.015182
      9      -0.174057   0.016402  -0.136496   0.139155   0.148764   0.076765
     10      -0.219622  -0.066524   0.103980  -0.047941  -0.001291   0.051089
     11      -0.072452   0.043678  -0.052937   0.129884  -0.014168  -0.297289
     12      -0.012047  -0.049824   0.004084  -0.152034   0.016824  -0.031453
     13       0.042891   0.031551  -0.167161  -0.019268  -0.017968  -0.011218
     14       0.028626   0.018999  -0.036658   0.010405   0.059745   0.052555
     15       0.074470   0.064006   0.250016   0.102821  -0.001320   0.002271
     16      -0.009780   0.023078   0.279792   0.100230   0.000033  -0.000560
     17      -0.035374  -0.004194   0.003117   0.000955  -0.003082   0.003030
     18       0.085343   0.045052  -0.007710   0.018420   0.000944   0.003591
     19       0.008430  -0.006534  -0.041257  -0.003647  -0.002323  -0.000672
     20       0.007159   0.006640   0.005803   0.000634   0.002996   0.000278
     21      -0.115886   0.299968   0.061640  -0.074633  -0.089100  -0.089867
     22       0.025215   0.408315   0.300369  -0.407170   0.205612   0.007415
     23       0.015967   0.645982   0.492206  -0.704039   0.184563  -0.150535
     24       0.107374  -0.091058  -0.100949   0.153810  -0.369894   0.140713
     25      -0.259383   0.198050   0.005591  -0.079320   0.197833  -0.121799
     26       0.172149   0.012507   0.071542  -0.131098  -0.261314   0.179214
     27      -0.219001   0.208083  -0.169047   0.070459  -0.044086  -0.162758
     28      -0.237256   0.167930   0.001880  -0.063998   0.205421  -0.113285
     29      -0.068316   0.040068  -0.047042   0.031573   0.184418   0.030983
     30       0.057180  -0.012909  -0.125870   0.089625   0.221191   0.177025
     31       0.507996  -0.102835   0.024289   0.003597   0.097809  -0.280426
     32       0.168359  -0.047296   0.070880  -0.085526   0.087776  -0.002209
     33       0.433012   0.018714  -0.200507   0.148286   0.192776  -0.012827
     34       0.125282  -0.089041   0.085045  -0.048017  -0.007405  -0.071879
     35      -0.315131   0.185552   0.068941  -0.144208  -0.445053   0.244592
     36       0.032857   0.022690   0.105929  -0.127596  -0.051077   0.228735
     37       0.066758   0.056129  -0.129578   0.010857   0.053445  -0.071703
     38      -0.022188   0.033309   0.039735  -0.115983  -0.375862   0.715367
     39       0.137380   0.032533  -0.225375  -0.053348   0.003873   0.002375
     40       0.021009  -0.004363  -0.027076   0.005508  -0.001213   0.001391
     41      -0.010733   0.006072   0.001257  -0.006981   0.000986  -0.002570
     42       0.072051   0.047326   0.162857   0.079153   0.000117   0.003263
     43       0.047556  -0.010012  -0.344296  -0.107617   0.000037  -0.000696
     44       0.056450   0.005919   0.029164   0.017248   0.006307  -0.004534
     45       0.055258   0.034948  -0.136588  -0.022566   0.000445   0.014420
     46      -0.007069  -0.000070  -0.054813  -0.024435  -0.001034  -0.012635
     47       0.000001   0.008249  -0.001451  -0.007122   0.003590  -0.003433
                 18         19         20         21         22         23    
      0       0.014369  -0.015192  -0.107477  -0.029126  -0.010476  -0.109174
      1       0.006882   0.021457   0.128674   0.042960   0.039498  -0.030024
      2       0.057366  -0.031144  -0.212501  -0.046774  -0.060603   0.107770
      3      -0.042095   0.002005  -0.024406  -0.006930   0.137811   0.084307
      4      -0.015105   0.004612   0.032662   0.023061  -0.102221   0.064365
      5      -0.016390  -0.001869  -0.008642  -0.012130   0.160525   0.058989
      6       0.018568   0.002400   0.000487  -0.019494  -0.009936   0.058557
      7      -0.036591  -0.002275  -0.002724   0.025909  -0.071892   0.028595
      8      -0.026011   0.006120   0.035116   0.012144  -0.081585  -0.230592
      9       0.002253  -0.006827  -0.031356   0.006810  -0.093353   0.007580
     10      -0.012592  -0.007560  -0.047137  -0.006392   0.084323  -0.028796
     11       0.062470   0.020023   0.136210   0.050215  -0.024133   0.045784
     12      -0.007166   0.011041   0.046198  -0.001523   0.001514   0.000259
     13       0.008302   0.001288  -0.017563  -0.010908  -0.006700   0.003910
     14      -0.030678   0.000088   0.002627   0.002369   0.004851  -0.005333
     15      -0.000688  -0.193512   0.013964  -0.006546  -0.000010   0.001333
     16      -0.005490   0.154102  -0.001699  -0.011279   0.000246   0.000033
     17       0.006169  -0.038673   0.006414  -0.004466  -0.002495   0.002008
     18       0.006115   0.419582  -0.036374   0.010857  -0.000660  -0.001259
     19      -0.003054  -0.349605   0.026066  -0.009524  -0.000582  -0.002075
     20      -0.000270   0.084374  -0.008605   0.003557   0.001399  -0.001166
     21       0.109538  -0.052418  -0.309340  -0.021217  -0.257622  -0.019313
     22       0.062932  -0.009825  -0.019519  -0.008546   0.082850   0.004225
     23       0.163125  -0.085457  -0.481698  -0.116028  -0.078246   0.188209
     24      -0.134378   0.018089   0.084647   0.079172  -0.145217   0.197785
     25       0.095140  -0.013512  -0.080006  -0.061149   0.170786  -0.098644
     26      -0.164567   0.016597   0.094198   0.055903  -0.059739   0.346672
     27       0.107772  -0.034914  -0.247764  -0.128462   0.355088  -0.159727
     28       0.098812  -0.012249  -0.069652  -0.058400   0.163420  -0.102536
     29       0.055029   0.019455   0.123193  -0.029155   0.653225   0.022601
     30       0.021117  -0.016984  -0.098993  -0.047160  -0.095424  -0.194624
     31       0.129186  -0.001264   0.009721  -0.018593   0.168173  -0.215196
     32       0.073069  -0.016830  -0.080713  -0.050152  -0.047746  -0.708184
     33       0.075451  -0.004017  -0.013881  -0.027001  -0.003533  -0.138385
     34       0.014472  -0.004366  -0.019763   0.001606   0.018110  -0.062329
     35      -0.217738   0.019543   0.100663   0.082163  -0.346037   0.178312
     36       0.309353  -0.157361  -0.386320   0.888665   0.141184  -0.040807
     37      -0.073749  -0.068767  -0.262649   0.328352   0.071606  -0.037680
     38       0.829380   0.094013   0.464176  -0.171418  -0.115454   0.120396
     39       0.012876   0.238674  -0.039103   0.035291  -0.000993   0.015202
     40      -0.005532  -0.309201   0.026596  -0.011509   0.004458  -0.007236
     41       0.002733   0.056610  -0.007629   0.000643  -0.005410   0.004357
     42      -0.004017   0.400152  -0.026030  -0.004541  -0.000328  -0.011876
     43       0.013261  -0.327313   0.005611   0.020139  -0.001741   0.017252
     44      -0.008569   0.081207  -0.017165   0.006541  -0.001653  -0.001149
     45       0.012263   0.235778  -0.024666   0.025292   0.009530   0.000167
     46      -0.001149  -0.287800   0.021240  -0.013169  -0.008638   0.010837
     47       0.000328   0.097499  -0.010197   0.003314  -0.001051   0.003367
                 24         25         26         27         28         29    
      0      -0.000199   0.000661   0.117790   0.062588   0.156944   0.076720
      1       0.000846  -0.002834  -0.046225  -0.021668   0.017090   0.004883
      2      -0.002805  -0.001645  -0.049025  -0.051458  -0.056897  -0.027708
      3       0.000100  -0.005015  -0.133108   0.036320  -0.169034  -0.041890
      4      -0.000257   0.002983   0.109418   0.056112  -0.117075   0.045862
      5       0.001126   0.005824   0.115949   0.172698   0.071984   0.075819
      6       0.000887  -0.001040   0.034558  -0.409234   0.053579  -0.004998
      7      -0.002186   0.000188  -0.098736   0.121630   0.160884  -0.092094
      8       0.000802  -0.005717  -0.058673  -0.087384  -0.047311  -0.058671
      9      -0.001450   0.000995  -0.044578   0.286384   0.010154  -0.014342
     10       0.001349  -0.001245   0.045430  -0.157084  -0.058413   0.032224
     11      -0.001280   0.001612   0.011620  -0.040375   0.016372   0.020993
     12      -0.000302  -0.000363  -0.000979  -0.006642  -0.003842  -0.002286
     13       0.000149   0.002489   0.003007   0.002591   0.000720  -0.001365
     14       0.000699  -0.000260  -0.003990   0.004320  -0.001289   0.000304
     15      -0.002071  -0.013146  -0.000086  -0.001369  -0.001118  -0.000302
     16      -0.000110  -0.028881   0.001480   0.000217   0.000330   0.000620
     17       0.023368   0.000231  -0.001235   0.001429  -0.000128  -0.000458
     18       0.015109   0.074374  -0.003277  -0.001134  -0.001123  -0.001477
[...]
     35       0.329238  -0.107945  -0.198420   0.018130   0.517962   0.005961
     36      -0.008176  -0.023576   0.000813  -0.009353  -0.010788   0.003647
     37      -0.000100  -0.010015   0.008125   0.008154  -0.012170   0.007203
     38      -0.008907  -0.027665  -0.029759   0.006358   0.006181   0.001389
     39      -0.000804  -0.035152   0.063633   0.487456  -0.001784   0.454714
     40       0.000710   0.015218  -0.025540  -0.196148  -0.003584   0.344350
     41      -0.000595  -0.014876   0.027427   0.224539   0.004017  -0.422368
     42      -0.000717  -0.018218   0.032906   0.266276  -0.002828   0.096893
     43       0.001032   0.033418  -0.062260  -0.496320   0.005350  -0.351815
     44      -0.000183  -0.010695   0.018940   0.116111  -0.000178  -0.418048
     45      -0.000550  -0.029408   0.062965   0.468954  -0.000432  -0.188244
     46       0.000173   0.013692  -0.032483  -0.285238  -0.004308   0.350429
     47       0.000216   0.006194  -0.012692  -0.110338  -0.001591   0.161873
                 36         37         38         39         40         41    
      0      -0.000704  -0.005452  -0.001849   0.000290  -0.000294   0.000833
      1       0.000037  -0.000677   0.003131  -0.000220  -0.000001  -0.001430
      2       0.000269  -0.000416   0.001981  -0.000278   0.000169  -0.001125
      3      -0.000551  -0.077189   0.024275   0.000225  -0.002015   0.058466
      4      -0.000306   0.008566  -0.001471   0.000497  -0.010649   0.036189
      5      -0.000637  -0.024656   0.006417  -0.000309  -0.002295   0.022592
      6      -0.000677   0.010581   0.043318   0.000910   0.002814  -0.010015
      7       0.000387  -0.013421  -0.041823  -0.000536   0.063122  -0.001597
      8      -0.000766  -0.015240  -0.056474   0.000662   0.037838   0.008140
      9       0.000443   0.005059   0.004776  -0.001249  -0.002531  -0.000204
     10      -0.000236  -0.002008  -0.005710   0.000969   0.000736   0.000026
     11       0.000131  -0.001607  -0.004169   0.000337  -0.000195   0.000047
     12      -0.000063   0.000007  -0.000499  -0.004176   0.000140  -0.000073
     13       0.000164  -0.000530  -0.000266   0.012328   0.000077   0.000118
     14      -0.000317   0.000669   0.000666   0.002670  -0.000177  -0.000128
     15      -0.001814  -0.000009   0.000256  -0.000107  -0.000071   0.000025
     16      -0.002482   0.000220   0.000060   0.000860  -0.000036  -0.000015
     17      -0.001610  -0.000095  -0.000111   0.000045   0.000047   0.000014
     18      -0.026153   0.000492   0.000509  -0.001099  -0.000062   0.000082
     19      -0.043538  -0.000002   0.000367  -0.000253  -0.000043  -0.000052
     20      -0.034383   0.000249  -0.000158   0.000031  -0.000075   0.000032
     21       0.003324  -0.031489   0.013535  -0.005585  -0.000005   0.003036
     22      -0.001164   0.005806  -0.006412   0.006009  -0.001417   0.004925
     23      -0.000157   0.001231  -0.005510   0.004241   0.001980   0.002461
     24       0.004728   0.502523  -0.150289   0.000277   0.062618  -0.530019
     25      -0.004935  -0.447514   0.132192   0.002320   0.081097  -0.727891
     26       0.003142   0.148078  -0.030740   0.001505   0.020666  -0.177749
     27       0.006200   0.511238  -0.144708  -0.002305  -0.028463  -0.168848
     28       0.004666   0.395848  -0.125483  -0.001850   0.042468   0.300921
     29       0.003244   0.125384  -0.069809   0.000723  -0.005773  -0.070390
     30       0.001803  -0.026034  -0.003129  -0.000508   0.219108   0.124641
     31       0.001532   0.187991   0.598160   0.002614   0.114190   0.056817
     32       0.003381   0.070310   0.288590  -0.000702  -0.155723  -0.089799
     33      -0.000227  -0.163536  -0.546924  -0.002460  -0.224964  -0.011291
     34      -0.001132  -0.008866  -0.026198   0.000246  -0.877612  -0.034078
     35       0.004267   0.123465   0.410647  -0.000839  -0.273416  -0.007877
     36       0.001875   0.001648   0.003358   0.313426  -0.001260   0.000939
     37      -0.000718  -0.000487   0.005316  -0.927208   0.000431  -0.001727
     38       0.005006  -0.005418  -0.004187  -0.203951   0.001008   0.000728
     39      -0.216999  -0.000455  -0.005103   0.010051   0.000231   0.000134
     40       0.201015  -0.002889  -0.001324  -0.000909  -0.000205   0.001238
     41      -0.272813   0.003372   0.002316   0.000993  -0.000199   0.001212
     42       0.107791  -0.003760  -0.000246   0.002431   0.000290  -0.000984
     43      -0.089821   0.005507   0.002138  -0.004986   0.000376  -0.000858
     44       0.563992  -0.005950   0.002448  -0.000781  -0.000108   0.000267
     45       0.482770  -0.007045  -0.000306   0.004181   0.000086   0.000203
     46       0.478755  -0.005086  -0.002496  -0.000246  -0.000116   0.000503
     47       0.184522  -0.001920  -0.001173  -0.000982   0.000916  -0.001743
                 42         43         44         45         46         47    
      0      -0.000043   0.000467   0.000500  -0.000049  -0.000078   0.013016
      1      -0.000075   0.000025  -0.001814  -0.000065  -0.000022   0.056080
      2       0.000008  -0.000160   0.000334  -0.000009  -0.000026  -0.044675
      3      -0.000316  -0.014820  -0.021796   0.000004   0.000036  -0.001473
      4       0.000525   0.013551   0.086204  -0.000013   0.000006   0.001801
      5      -0.000195  -0.006384  -0.010919  -0.000021  -0.000006   0.001348
      6      -0.002176  -0.062365   0.014331   0.000012   0.000028  -0.000192
      7      -0.001732  -0.047058   0.017278   0.000033  -0.000017   0.000054
      8       0.001367   0.039104  -0.004793   0.000016  -0.000018   0.000194
      9      -0.000049   0.000088   0.000130  -0.000001  -0.000038  -0.000036
     10       0.000019   0.000850  -0.000541  -0.000014  -0.000040  -0.000082
     11       0.000015  -0.000171   0.000180   0.000022   0.000014   0.000217
     12       0.000064   0.000149   0.000084  -0.000014  -0.000034   0.000184
     13       0.000059  -0.000095   0.000037   0.000025   0.000045   0.000035
     14      -0.000016  -0.000086  -0.000003  -0.000010   0.000002   0.000118
     15      -0.000162  -0.000024  -0.000014   0.000032   0.000032  -0.000005
     16      -0.000085   0.000013  -0.000012  -0.000084  -0.000116  -0.000020
     17       0.000019  -0.000009   0.000012  -0.000142   0.000155  -0.000007
     18      -0.032482   0.001213  -0.000034   0.037423   0.050274   0.000027
     19       0.032361  -0.001219  -0.000007   0.056872   0.042908   0.000070
     20      -0.004039   0.000146  -0.000027   0.065707  -0.067777   0.000010
     21       0.000487   0.000164  -0.001291   0.000328   0.000070  -0.174100
     22       0.000279   0.001624   0.012825   0.000280  -0.000010  -0.785650
     23       0.000080  -0.002573  -0.006512  -0.000080   0.000054   0.589004
     24      -0.000341   0.033830  -0.214634  -0.000037  -0.000206  -0.005175
     25      -0.000139   0.049999  -0.271743  -0.000009  -0.000236  -0.005727
     26       0.000079   0.012698  -0.076534   0.000045  -0.000030  -0.001793
     27       0.003948   0.131966   0.461162   0.000173  -0.000120   0.004724
     28      -0.006428  -0.215925  -0.746270  -0.000148   0.000188  -0.010006
     29       0.001801   0.059320   0.201918   0.000011  -0.000032   0.003347
     30       0.023822   0.682366  -0.137511   0.000087  -0.000352  -0.000287
     31       0.011296   0.321243  -0.064019   0.000026  -0.000112  -0.000243
     32      -0.018707  -0.533943   0.106888  -0.000036   0.000243   0.000670
     33       0.002072   0.054653  -0.032761  -0.000111   0.000082   0.000202
     34       0.008866   0.234350  -0.132034  -0.000407   0.000159   0.000440
     35       0.003181   0.085835  -0.046549  -0.000126   0.000016  -0.000069
     36      -0.001433  -0.000614  -0.000627  -0.001059   0.000468   0.000662
     37      -0.001424   0.000749  -0.000171  -0.001051  -0.001127  -0.000994
     38       0.000481   0.000017   0.000466   0.000622  -0.000051  -0.000379
     39      -0.041286   0.001439   0.000097  -0.041695   0.014538  -0.000069
     40      -0.464156   0.017249  -0.000096  -0.581917   0.064851  -0.000337
     41      -0.410832   0.015072  -0.000068  -0.506742   0.037271  -0.000193
     42       0.461302  -0.017448   0.000263  -0.429082  -0.585920   0.000141
     43       0.267880  -0.009795   0.000164  -0.236704  -0.330158  -0.000228
     44      -0.074905   0.002731  -0.000064   0.082678   0.082678   0.000070
     45      -0.029897   0.001043   0.000016   0.025958  -0.025276   0.000053
     46      -0.188205   0.006908  -0.000096   0.144017  -0.243295  -0.000014
     47       0.533156  -0.019323   0.000345  -0.354260   0.682829  -0.000042


-----------
IR SPECTRUM
-----------

 Mode   freq       eps      Int      T**2         TX        TY        TZ
       cm**-1   L/(mol*cm) km/mol    a.u.
----------------------------------------------------------------------------
  6:     40.84   0.000320    1.62  0.002446  ( 0.008642 -0.018543 -0.045032)
  7:     77.98   0.000654    3.30  0.002615  ( 0.033476  0.006408 -0.038126)
  8:     97.45   0.000018    0.09  0.000058  (-0.001636 -0.005775  0.004714)
  9:    135.12   0.001309    6.62  0.003024  (-0.020876  0.000807 -0.050866)
 10:    160.77   0.002912   14.72  0.005653  ( 0.029056 -0.007969  0.068888)
 11:    211.73   0.001690    8.54  0.002490  (-0.012730 -0.007945 -0.047592)
 12:    253.76   0.001578    7.97  0.001940  ( 0.011636  0.038066  0.018864)
 13:    361.00   0.014793   74.76  0.012788  ( 0.007979  0.044280  0.103748)
 14:    410.56   0.003171   16.02  0.002410  (-0.017380 -0.044511  0.011264)
 15:    467.41   0.025502  128.88  0.017026  (-0.115543 -0.025981 -0.054782)
 16:    587.76   0.003907   19.74  0.002074  ( 0.008528 -0.005117  0.044446)
 17:    686.92   0.008603   43.48  0.003908  (-0.047164 -0.016642  0.037509)
 18:    708.77   0.009487   47.94  0.004177  (-0.019970  0.008339 -0.060900)
 19:    737.36   0.002520   12.74  0.001067  ( 0.030623 -0.011350  0.000128)
 20:    752.91   0.009530   48.16  0.003950  ( 0.057517 -0.000485 -0.025329)
 21:    792.14   0.017827   90.09  0.007023  (-0.078132 -0.030276  0.001374)
 22:    923.61   0.002303   11.64  0.000778  ( 0.014005 -0.021042  0.011799)
 23:    944.74   0.004104   20.74  0.001356  ( 0.023312  0.010266 -0.026584)
 24:   1021.66   0.001059    5.35  0.000324  (-0.001924 -0.001495  0.017823)
 25:   1029.74   0.001752    8.85  0.000531  (-0.017675 -0.014768  0.000567)
 26:   1088.16   0.000554    2.80  0.000159  (-0.001350 -0.011328  0.005350)
 27:   1133.15   0.029985  151.53  0.008258  (-0.081558  0.037423  0.014334)
 28:   1174.23   0.012872   65.05  0.003421  (-0.055742  0.014286  0.010470)
 29:   1269.02   0.003196   16.15  0.000786  (-0.027135 -0.006578 -0.002523)
 30:   1293.87   0.000119    0.60  0.000029  (-0.004738  0.000924  0.002314)
 31:   1387.18   0.006653   33.62  0.001497  ( 0.037630 -0.006849 -0.005807)
 32:   1416.41   0.000633    3.20  0.000140  (-0.010423 -0.005555  0.000039)
 33:   1427.27   0.000712    3.60  0.000156  (-0.011581 -0.000099 -0.004637)
 34:   1445.78   0.002980   15.06  0.000643  (-0.024005  0.008156  0.000678)
 35:   1532.97   0.002593   13.10  0.000528  ( 0.017012 -0.000292 -0.015439)
 36:   1541.71   0.002161   10.92  0.000437  ( 0.012007  0.009937  0.013946)
 37:   1560.11   0.000277    1.40  0.000055  (-0.001075  0.001285  0.007254)
 38:   1574.68   0.000675    3.41  0.000134  ( 0.011374  0.002048 -0.000476)
 39:   2233.89   0.021021  106.23  0.002936  (-0.009364  0.052130  0.011455)
 40:   3062.53   0.011026   55.72  0.001124  (-0.013595  0.023309  0.019885)
 41:   3090.21   0.010249   51.80  0.001035  ( 0.028769  0.010503  0.009852)
 42:   3138.77   0.004165   21.05  0.000414  (-0.017704  0.009828 -0.002008)
 43:   3143.53   0.009446   47.73  0.000938  (-0.027598 -0.007251  0.011111)
 44:   3161.82   0.005644   28.52  0.000557  (-0.002890  0.023178 -0.003389)
 45:   3236.26   0.000631    3.19  0.000061  ( 0.002443  0.004021  0.006220)
 46:   3242.56   0.000420    2.12  0.000040  ( 0.000352  0.002873 -0.005663)
 47:   3699.86   0.005831   29.47  0.000492  ( 0.000700 -0.016387  0.014925)

* The epsilon (eps) is given for a Dirac delta lineshape.
** The dipole moment derivative (T) already includes vibrational overlap.

The first frequency considered to be a vibration is 6
The total number of vibrations considered is 42


--------------------------
THERMOCHEMISTRY AT 298.15K
--------------------------

Temperature         ... 298.15 K
Pressure            ... 1.00 atm
Total Mass          ... 179.76 AMU

Throughout the following assumptions are being made:
  (1) The electronic state is orbitally nondegenerate
  (2) There are no thermally accessible electronically excited states
  (3) Hindered rotations indicated by low frequency modes are not
      treated as such but are treated as vibrations and this may
      cause some error
  (4) All equations used are the standard statistical mechanics
      equations for an ideal gas
  (5) All vibrations are strictly harmonic

freq.      40.84  E(vib)   ...       0.54 
freq.      77.98  E(vib)   ...       0.49 
freq.      97.45  E(vib)   ...       0.46 
freq.     135.12  E(vib)   ...       0.42 
freq.     160.77  E(vib)   ...       0.39 
freq.     211.73  E(vib)   ...       0.34 
freq.     253.76  E(vib)   ...       0.30 
freq.     361.00  E(vib)   ...       0.22 
freq.     410.56  E(vib)   ...       0.19 
freq.     467.41  E(vib)   ...       0.16 
freq.     587.76  E(vib)   ...       0.10 
freq.     686.92  E(vib)   ...       0.07 
freq.     708.77  E(vib)   ...       0.07 
freq.     737.36  E(vib)   ...       0.06 
freq.     752.91  E(vib)   ...       0.06 
freq.     792.14  E(vib)   ...       0.05 
freq.     923.61  E(vib)   ...       0.03 
freq.     944.74  E(vib)   ...       0.03 
freq.    1021.66  E(vib)   ...       0.02 
freq.    1029.74  E(vib)   ...       0.02 
freq.    1088.16  E(vib)   ...       0.02 
freq.    1133.15  E(vib)   ...       0.01 
freq.    1174.23  E(vib)   ...       0.01 
freq.    1269.02  E(vib)   ...       0.01 
freq.    1293.87  E(vib)   ...       0.01 
freq.    1387.18  E(vib)   ...       0.00 
freq.    1416.41  E(vib)   ...       0.00 
freq.    1427.27  E(vib)   ...       0.00 
freq.    1445.78  E(vib)   ...       0.00 
freq.    1532.97  E(vib)   ...       0.00 
freq.    1541.71  E(vib)   ...       0.00 
freq.    1560.11  E(vib)   ...       0.00 
freq.    1574.68  E(vib)   ...       0.00 
freq.    2233.89  E(vib)   ...       0.00 
freq.    3062.53  E(vib)   ...       0.00 
freq.    3090.21  E(vib)   ...       0.00 
freq.    3138.77  E(vib)   ...       0.00 
freq.    3143.53  E(vib)   ...       0.00 
freq.    3161.82  E(vib)   ...       0.00 
freq.    3236.26  E(vib)   ...       0.00 
freq.    3242.56  E(vib)   ...       0.00 
freq.    3699.86  E(vib)   ...       0.00 

------------
INNER ENERGY
------------

The inner energy is: U= E(el) + E(ZPE) + E(vib) + E(rot) + E(trans)
    E(el)   - is the total energy from the electronic structure calculation
              = E(kin-el) + E(nuc-el) + E(el-el) + E(nuc-nuc)
    E(ZPE)  - the the zero temperature vibrational energy from the frequency calculation
    E(vib)  - the the finite temperature correction to E(ZPE) due to population
              of excited vibrational states
    E(rot)  - is the rotational thermal energy
    E(trans)- is the translational thermal energy

Summary of contributions to the inner energy U:
Electronic energy                ...  -2722.95132765 Eh
Zero point energy                ...      0.12816098 Eh      80.42 kcal/mol
Thermal vibrational correction   ...      0.00655015 Eh       4.11 kcal/mol
Thermal rotational correction    ...      0.00141627 Eh       0.89 kcal/mol
Thermal translational correction ...      0.00141627 Eh       0.89 kcal/mol
-----------------------------------------------------------------------
Total thermal energy                  -2722.81378398 Eh


Summary of corrections to the electronic energy:
(perhaps to be used in another calculation)
Total thermal correction                  0.00938269 Eh       5.89 kcal/mol
Non-thermal (ZPE) correction              0.12816098 Eh      80.42 kcal/mol
-----------------------------------------------------------------------
Total correction                          0.13754367 Eh      86.31 kcal/mol


--------
ENTHALPY
--------

The enthalpy is H = U + kB*T
                kB is Boltzmann's constant
Total free energy                 ...  -2722.81378398 Eh 
Thermal Enthalpy correction       ...      0.00094421 Eh       0.59 kcal/mol
-----------------------------------------------------------------------
Total Enthalpy                    ...  -2722.81283977 Eh


Note: Only C1 symmetry has been detected, increase convergence thresholds 
      if your molecule has a higher symmetry. Symmetry factor of 1.0 is   
      used for the rotational entropy correction. 
 

Note: Rotational entropy computed according to Herzberg 
Infrared and Raman Spectra, Chapter V,1, Van Nostrand Reinhold, 1945 
Point Group:  C1, Symmetry Number:   1  
Rotational constants in cm-1:     0.125500     0.032978     0.031355 

Vibrational entropy computed according to the QRRHO of S. Grimme
Chem.Eur.J. 2012 18 9955


-------
ENTROPY
-------

The entropy contributions are T*S = T*(S(el)+S(vib)+S(rot)+S(trans))
     S(el)   - electronic entropy
     S(vib)  - vibrational entropy
     S(rot)  - rotational entropy
     S(trans)- translational entropy
The entropies will be listed as multiplied by the temperature to get
units of energy

Electronic entropy                ...      0.00000000 Eh      0.00 kcal/mol
Vibrational entropy               ...      0.01173879 Eh      7.37 kcal/mol
Rotational entropy                ...      0.01373590 Eh      8.62 kcal/mol
Translational entropy             ...      0.01970183 Eh     12.36 kcal/mol
-----------------------------------------------------------------------
Final entropy term                ...      0.04517652 Eh     28.35 kcal/mol

In case the symmetry of your molecule has not been determined correctly
or in case you have a reason to use a different symmetry number we print 
out the resulting rotational entropy values for sn=1,12 :
 --------------------------------------------------------
|  sn= 1 | S(rot)=       0.01373590 Eh      8.62 kcal/mol|
|  sn= 2 | S(rot)=       0.01308144 Eh      8.21 kcal/mol|
|  sn= 3 | S(rot)=       0.01269861 Eh      7.97 kcal/mol|
|  sn= 4 | S(rot)=       0.01242698 Eh      7.80 kcal/mol|
|  sn= 5 | S(rot)=       0.01221630 Eh      7.67 kcal/mol|
|  sn= 6 | S(rot)=       0.01204415 Eh      7.56 kcal/mol|
|  sn= 7 | S(rot)=       0.01189860 Eh      7.47 kcal/mol|
|  sn= 8 | S(rot)=       0.01177253 Eh      7.39 kcal/mol|
|  sn= 9 | S(rot)=       0.01166132 Eh      7.32 kcal/mol|
|  sn=10 | S(rot)=       0.01156184 Eh      7.26 kcal/mol|
|  sn=11 | S(rot)=       0.01147185 Eh      7.20 kcal/mol|
|  sn=12 | S(rot)=       0.01138969 Eh      7.15 kcal/mol|
 --------------------------------------------------------


-------------------
GIBBS FREE ENERGY
-------------------

The Gibbs free energy is G = H - T*S

Total enthalpy                    ...  -2722.81283977 Eh 
Total entropy correction          ...     -0.04517652 Eh    -28.35 kcal/mol
-----------------------------------------------------------------------
Final Gibbs free energy         ...  -2722.85801628 Eh

For completeness - the Gibbs free energy minus the electronic energy
G-E(el)                           ...      0.09331137 Eh     58.55 kcal/mol


Timings for individual modules:

Sum of individual times         ...      181.071 sec (=   3.018 min)
GTO integral calculation        ...        1.868 sec (=   0.031 min)   1.0 %
SCF iterations                  ...       34.988 sec (=   0.583 min)  19.3 %
Analytical frequency calculation...      144.214 sec (=   2.404 min)  79.6 %
                             ****ORCA TERMINATED NORMALLY****
TOTAL RUN TIME: 0 days 0 hours 3 minutes 2 seconds 669 msec
