
                                 *****************
                                 * O   R   C   A *
                                 *****************

                                            #,                                       
                                            ###                                      
                                            ####                                     
                                            #####                                    
                                            ######                                   
                                           ########,                                 
                                     ,,################,,,,,                         
                               ,,#################################,,                 
                          ,,##########################################,,             
                       ,#########################################, ''#####,          
                    ,#############################################,,   '####,        
                  ,##################################################,,,,####,       
                ,###########''''           ''''###############################       
              ,#####''   ,,,,##########,,,,          '''####'''          '####       
            ,##' ,,,,###########################,,,                        '##       
           ' ,,###''''                  '''############,,,                           
         ,,##''                                '''############,,,,        ,,,,,,###''
      ,#''                                            '''#######################'''  
     '                                                          ''''####''''         
             ,#######,   #######,   ,#######,      ##                                
            ,#'     '#,  ##    ##  ,#'     '#,    #''#        ######   ,####,        
            ##       ##  ##   ,#'  ##            #'  '#       #        #'  '#        
            ##       ##  #######   ##           ,######,      #####,   #    #        
            '#,     ,#'  ##    ##  '#,     ,#' ,#      #,         ##   #,  ,#        
             '#######'   ##     ##  '#######'  #'      '#     #####' # '####'        



                  #######################################################
                  #                        -***-                        #
                  #          Department of theory and spectroscopy      #
                  #    Directorship and core code : Frank Neese         #
                  #        Max Planck Institute fuer Kohlenforschung    #
                  #                Kaiser Wilhelm Platz 1               #
                  #                 D-45470 Muelheim/Ruhr               #
                  #                      Germany                        #
                  #                                                     #
                  #                  All rights reserved                #
                  #                        -***-                        #
                  #######################################################


                         Program Version 5.0.2 -  RELEASE  -


 With contributions from (in alphabetic order):
   Daniel Aravena         : Magnetic Suceptibility
   Michael Atanasov       : Ab Initio Ligand Field Theory (pilot matlab implementation)
   Alexander A. Auer      : GIAO ZORA, VPT2 properties, NMR spectrum
   Ute Becker             : Parallelization
   Giovanni Bistoni       : ED, misc. LED, open-shell LED, HFLD
   Martin Brehm           : Molecular dynamics
   Dmytro Bykov           : SCF Hessian
   Vijay G. Chilkuri      : MRCI spin determinant printing, contributions to CSF-ICE
   Dipayan Datta          : RHF DLPNO-CCSD density
   Achintya Kumar Dutta   : EOM-CC, STEOM-CC
   Dmitry Ganyushin       : Spin-Orbit,Spin-Spin,Magnetic field MRCI
   Miquel Garcia          : C-PCM and meta-GGA Hessian, CC/C-PCM, Gaussian charge scheme
   Yang Guo               : DLPNO-NEVPT2, F12-NEVPT2, CIM, IAO-localization
   Andreas Hansen         : Spin unrestricted coupled pair/coupled cluster methods
   Benjamin Helmich-Paris : MC-RPA, TRAH-SCF, COSX integrals
   Lee Huntington         : MR-EOM, pCC
   Robert Izsak           : Overlap fitted RIJCOSX, COSX-SCS-MP3, EOM
   Marcus Kettner         : VPT2
   Christian Kollmar      : KDIIS, OOCD, Brueckner-CCSD(T), CCSD density, CASPT2, CASPT2-K
   Simone Kossmann        : Meta GGA functionals, TD-DFT gradient, OOMP2, MP2 Hessian
   Martin Krupicka        : Initial AUTO-CI
   Lucas Lang             : DCDCAS
   Marvin Lechner         : AUTO-CI (C++ implementation), FIC-MRCC
   Dagmar Lenk            : GEPOL surface, SMD
   Dimitrios Liakos       : Extrapolation schemes; Compound Job, initial MDCI parallelization
   Dimitrios Manganas     : Further ROCIS development; embedding schemes
   Dimitrios Pantazis     : SARC Basis sets
   Anastasios Papadopoulos: AUTO-CI, single reference methods and gradients
   Taras Petrenko         : DFT Hessian,TD-DFT gradient, ASA, ECA, R-Raman, ABS, FL, XAS/XES, NRVS
   Peter Pinski           : DLPNO-MP2, DLPNO-MP2 Gradient
   Christoph Reimann      : Effective Core Potentials
   Marius Retegan         : Local ZFS, SOC
   Christoph Riplinger    : Optimizer, TS searches, QM/MM, DLPNO-CCSD(T), (RO)-DLPNO pert. Triples
   Tobias Risthaus        : Range-separated hybrids, TD-DFT gradient, RPA, STAB
   Michael Roemelt        : Original ROCIS implementation
   Masaaki Saitow         : Open-shell DLPNO-CCSD energy and density
   Barbara Sandhoefer     : DKH picture change effects
   Avijit Sen             : IP-ROCIS
   Kantharuban Sivalingam : CASSCF convergence, NEVPT2, FIC-MRCI
   Bernardo de Souza      : ESD, SOC TD-DFT
   Georgi Stoychev        : AutoAux, RI-MP2 NMR, DLPNO-MP2 response
   Willem Van den Heuvel  : Paramagnetic NMR
   Boris Wezisla          : Elementary symmetry handling
   Frank Wennmohs         : Technical directorship


 We gratefully acknowledge several colleagues who have allowed us to
 interface, adapt or use parts of their codes:
   Stefan Grimme, W. Hujo, H. Kruse, P. Pracht,  : VdW corrections, initial TS optimization,
                  C. Bannwarth, S. Ehlert          DFT functionals, gCP, sTDA/sTD-DF
   Ed Valeev, F. Pavosevic, A. Kumar             : LibInt (2-el integral package), F12 methods
   Garnet Chan, S. Sharma, J. Yang, R. Olivares  : DMRG
   Ulf Ekstrom                                   : XCFun DFT Library
   Mihaly Kallay                                 : mrcc  (arbitrary order and MRCC methods)
   Jiri Pittner, Ondrej Demel                    : Mk-CCSD
   Frank Weinhold                                : gennbo (NPA and NBO analysis)
   Christopher J. Cramer and Donald G. Truhlar   : smd solvation model
   Lars Goerigk                                  : TD-DFT with DH, B97 family of functionals
   V. Asgeirsson, H. Jonsson                     : NEB implementation
   FAccTs GmbH                                   : IRC, NEB, NEB-TS, DLPNO-Multilevel, CI-OPT
                                                   MM, QMMM, 2- and 3-layer-ONIOM, Crystal-QMMM,
                                                   LR-CPCM, SF, NACMEs, symmetry and pop. for TD-DFT,
                                                   nearIR, NL-DFT gradient (VV10), updates on ESD,
                                                   ML-optimized integration grids
   S Lehtola, MJT Oliveira, MAL Marques          : LibXC Library
   Liviu Ungur et al                             : ANISO software


 Your calculation uses the libint2 library for the computation of 2-el integrals
 For citations please refer to: http://libint.valeyev.net

 Your ORCA version has been built with support for libXC version: 5.1.0
 For citations please refer to: https://tddft.org/programs/libxc/

 This ORCA versions uses:
   CBLAS   interface :  Fast vector & matrix operations
   LAPACKE interface :  Fast linear algebra routines
   SCALAPACK package :  Parallel linear algebra routines
   Shared memory     :  Shared parallel matrices
   BLAS/LAPACK       :  OpenBLAS 0.3.15  USE64BITINT DYNAMIC_ARCH NO_AFFINITY SkylakeX SINGLE_THREADED
        Core in use  :  SkylakeX
   Copyright (c) 2011-2014, The OpenBLAS Project


================================================================================

----- Orbital basis set information -----
Your calculation utilizes the basis: def2-SVP
   F. Weigend and R. Ahlrichs, Phys. Chem. Chem. Phys. 7, 3297 (2005).

================================================================================
                                        WARNINGS
                       Please study these warnings very carefully!
================================================================================


INFO   : the flag for use of the SHARK integral package has been found!

================================================================================
                                       INPUT FILE
================================================================================
NAME = START_a001_b001.inp
|  1> !HF  DEF2-SVP 
|  2> %maxcore 20
|  3> %pal nprocs = 1  end
|  4> %scf
|  5> MAXITER 0
|  6> end
|  7> %output XYZFILE 1 end
|  8> * xyz 0 1
|  9> C 3.483362 -5.030919 3.569062
| 10> O 2.879155 -5.012189 2.305074
| 11> C 2.455578 -3.825623 1.814576
| 12> C 1.878874 -3.850852 0.545653
| 13> C 1.427451 -2.679253 -0.031044
| 14> C 2.566665 -2.609779 2.476314
| 15> C 2.096482 -1.446731 1.871336
| 16> C 1.505805 -1.433486 0.611361
| 17> B 0.944748 -0.090862 -0.109869
| 18> C 1.49158 1.281488 0.563085
| 19> C 1.075618 1.680586 1.842749
| 20> C 1.517016 2.840972 2.44865
| 21> C 2.417893 3.673608 1.786221
| 22> O 2.79719 4.792925 2.444416
| 23> C 3.725111 5.642275 1.82753
| 24> C 2.851752 3.314232 0.517662
| 25> C 2.382611 2.141426 -0.069614
| 26> C 1.190424 -0.172917 -1.710319
| 27> C 0.215929 -0.049632 -2.703378
| 28> C 0.504387 -0.147325 -4.05529
| 29> C 1.808237 -0.377502 -4.477955
| 30> O 2.0049 -0.464086 -5.814114
| 31> C 3.304456 -0.704255 -6.278215
| 32> C 2.807614 -0.512071 -3.519289
| 33> C 2.48552 -0.416183 -2.17198
| 34> C -3.489421 0.168318 0.387067
| 35> N -4.844761 0.258092 0.49443
| 36> C -5.486785 1.554078 0.656349
| 37> C -6.952786 1.490421 0.268567
| 38> O -7.629234 0.475387 0.955447
| 39> C -7.064239 -0.766842 0.64441
| 40> C -5.60304 -0.849345 1.051832
| 41> C -2.690578 1.251862 -0.028975
| 42> C -1.3343 1.108374 -0.150151
| 43> N -0.685936 -0.031718 0.117277
| 44> C -1.419028 -1.067727 0.522341
| 45> C -2.783771 -1.014484 0.671227
| 46> H 2.809111 -4.683806 4.359362
| 47> H 3.748543 -6.066386 3.773471
| 48> H 4.395675 -4.426215 3.604756
| 49> H 1.806408 -4.793319 0.017024
| 50> H 1.008804 -2.732545 -1.030253
| 51> H 3.024707 -2.539462 3.454215
| 52> H 2.224102 -0.517084 2.411659
| 53> H 0.371746 1.063827 2.393565
| 54> H 1.17197 3.116382 3.437676
| 55> H 3.907263 6.462263 2.519459
| 56> H 3.349135 6.060225 0.887438
| 57> H 4.677741 5.14139 1.62518
| 58> H 3.545247 3.932307 -0.037457
| 59> H 2.729199 1.907347 -1.068573
| 60> H -0.822886 0.115171 -2.439578
| 61> H -0.281075 -0.053048 -4.79495
| 62> H 3.247935 -0.737443 -7.36458
| 63> H 3.705309 -1.659858 -5.923424
| 64> H 4.003392 0.089274 -5.992492
| 65> H 3.835689 -0.703815 -3.797458
| 66> H 3.283197 -0.554023 -1.450089
| 67> H -5.013387 2.295722 0.01702
| 68> H -5.385691 1.900748 1.69278
| 69> H -7.432485 2.437809 0.517465
| 70> H -7.035206 1.346835 -0.818903
| 71> H -7.150286 -0.974439 -0.432412
| 72> H -7.629809 -1.532515 1.176835
| 73> H -5.513202 -0.872091 2.145947
| 74> H -5.216436 -1.792707 0.668603
| 75> H -3.10519 2.21721 -0.271296
| 76> H -0.719405 1.937239 -0.47096
| 77> H -0.876736 -1.973843 0.750926
| 78> H -3.271669 -1.905331 1.032854
| 79> *
| 80> 
| 81>                          ****END OF INPUT****
================================================================================

                       ****************************
                       * Single Point Calculation *
                       ****************************

---------------------------------
CARTESIAN COORDINATES (ANGSTROEM)
---------------------------------
  C      3.483362   -5.030919    3.569062
  O      2.879155   -5.012189    2.305074
  C      2.455578   -3.825623    1.814576
  C      1.878874   -3.850852    0.545653
  C      1.427451   -2.679253   -0.031044
  C      2.566665   -2.609779    2.476314
  C      2.096482   -1.446731    1.871336
  C      1.505805   -1.433486    0.611361
  B      0.944748   -0.090862   -0.109869
  C      1.491580    1.281488    0.563085
  C      1.075618    1.680586    1.842749
  C      1.517016    2.840972    2.448650
  C      2.417893    3.673608    1.786221
  O      2.797190    4.792925    2.444416
  C      3.725111    5.642275    1.827530
  C      2.851752    3.314232    0.517662
  C      2.382611    2.141426   -0.069614
  C      1.190424   -0.172917   -1.710319
  C      0.215929   -0.049632   -2.703378
  C      0.504387   -0.147325   -4.055290
  C      1.808237   -0.377502   -4.477955
  O      2.004900   -0.464086   -5.814114
  C      3.304456   -0.704255   -6.278215
  C      2.807614   -0.512071   -3.519289
  C      2.485520   -0.416183   -2.171980
  C     -3.489421    0.168318    0.387067
  N     -4.844761    0.258092    0.494430
  C     -5.486785    1.554078    0.656349
  C     -6.952786    1.490421    0.268567
  O     -7.629234    0.475387    0.955447
  C     -7.064239   -0.766842    0.644410
  C     -5.603040   -0.849345    1.051832
  C     -2.690578    1.251862   -0.028975
  C     -1.334300    1.108374   -0.150151
  N     -0.685936   -0.031718    0.117277
  C     -1.419028   -1.067727    0.522341
  C     -2.783771   -1.014484    0.671227
  H      2.809111   -4.683806    4.359362
  H      3.748543   -6.066386    3.773471
  H      4.395675   -4.426215    3.604756
  H      1.806408   -4.793319    0.017024
  H      1.008804   -2.732545   -1.030253
  H      3.024707   -2.539462    3.454215
  H      2.224102   -0.517084    2.411659
  H      0.371746    1.063827    2.393565
  H      1.171970    3.116382    3.437676
  H      3.907263    6.462263    2.519459
  H      3.349135    6.060225    0.887438
  H      4.677741    5.141390    1.625180
  H      3.545247    3.932307   -0.037457
  H      2.729199    1.907347   -1.068573
  H     -0.822886    0.115171   -2.439578
  H     -0.281075   -0.053048   -4.794950
  H      3.247935   -0.737443   -7.364580
  H      3.705309   -1.659858   -5.923424
  H      4.003392    0.089274   -5.992492
  H      3.835689   -0.703815   -3.797458
  H      3.283197   -0.554023   -1.450089
  H     -5.013387    2.295722    0.017020
  H     -5.385691    1.900748    1.692780
  H     -7.432485    2.437809    0.517465
  H     -7.035206    1.346835   -0.818903
  H     -7.150286   -0.974439   -0.432412
  H     -7.629809   -1.532515    1.176835
  H     -5.513202   -0.872091    2.145947
  H     -5.216436   -1.792707    0.668603
  H     -3.105190    2.217210   -0.271296
  H     -0.719405    1.937239   -0.470960
  H     -0.876736   -1.973843    0.750926
  H     -3.271669   -1.905331    1.032854

----------------------------
CARTESIAN COORDINATES (A.U.)
----------------------------
  NO LB      ZA    FRAG     MASS         X           Y           Z
   0 C     6.0000    0    12.011    6.582600   -9.507059    6.744550
   1 O     8.0000    0    15.999    5.440814   -9.471665    4.355959
   2 C     6.0000    0    12.011    4.640370   -7.229380    3.429052
   3 C     6.0000    0    12.011    3.550557   -7.277056    1.031135
   4 C     6.0000    0    12.011    2.697491   -5.063054   -0.058665
   5 C     6.0000    0    12.011    4.850294   -4.931768    4.679555
   6 C     6.0000    0    12.011    3.961777   -2.733925    3.536313
   7 C     6.0000    0    12.011    2.845559   -2.708896    1.155305
   8 B     5.0000    0    10.810    1.785315   -0.171704   -0.207622
   9 C     6.0000    0    12.011    2.818678    2.421661    1.064076
  10 C     6.0000    0    12.011    2.032623    3.175847    3.482291
  11 C     6.0000    0    12.011    2.866745    5.368659    4.627278
  12 C     6.0000    0    12.011    4.569156    6.942113    3.375469
  13 O     8.0000    0    15.999    5.285923    9.057316    4.619277
  14 C     6.0000    0    12.011    7.039440   10.662355    3.453531
  15 C     6.0000    0    12.011    5.389030    6.262991    0.978239
  16 C     6.0000    0    12.011    4.502482    4.046709   -0.131551
  17 C     6.0000    0    12.011    2.249575   -0.326766   -3.232035
  18 C     6.0000    0    12.011    0.408047   -0.093791   -5.108644
  19 C     6.0000    0    12.011    0.953153   -0.278404   -7.663387
  20 C     6.0000    0    12.011    3.417073   -0.713375   -8.462109
  21 O     8.0000    0    15.999    3.788712   -0.876995  -10.987083
  22 C     6.0000    0    12.011    6.244517   -1.330849  -11.864107
  23 C     6.0000    0    12.011    5.305622   -0.967674   -6.650492
  24 C     6.0000    0    12.011    4.696952   -0.786472   -4.104447
  25 C     6.0000    0    12.011   -6.594050    0.318075    0.731451
  26 N     7.0000    0    14.007   -9.155271    0.487723    0.934337
  27 C     6.0000    0    12.011  -10.368521    2.936782    1.240320
  28 C     6.0000    0    12.011  -13.138861    2.816488    0.507518
  29 O     8.0000    0    15.999  -14.417163    0.898351    1.805533
  30 C     6.0000    0    12.011  -13.349477   -1.449121    1.217758
  31 C     6.0000    0    12.011  -10.588211   -1.605029    1.987674
  32 C     6.0000    0    12.011   -5.084456    2.365676   -0.054755
  33 C     6.0000    0    12.011   -2.521462    2.094523   -0.283744
  34 N     7.0000    0    14.007   -1.296231   -0.059938    0.221621
  35 C     6.0000    0    12.011   -2.681574   -2.017712    0.987081
  36 C     6.0000    0    12.011   -5.260565   -1.917097    1.268435
  37 H     1.0000    0     1.008    5.308450   -8.851111    8.238000
  38 H     1.0000    0     1.008    7.083720  -11.463808    7.130827
  39 H     1.0000    0     1.008    8.306622   -8.364334    6.812002
  40 H     1.0000    0     1.008    3.413616   -9.058060    0.032171
  41 H     1.0000    0     1.008    1.906363   -5.163762   -1.946896
  42 H     1.0000    0     1.008    5.715868   -4.798888    6.527520
  43 H     1.0000    0     1.008    4.202944   -0.977147    4.557375
  44 H     1.0000    0     1.008    0.702498    2.010342    4.523182
  45 H     1.0000    0     1.008    2.214702    5.889109    6.496266
  46 H     1.0000    0     1.008    7.383657   12.211907    4.761088
  47 H     1.0000    0     1.008    6.328948   11.452166    1.677015
  48 H     1.0000    0     1.008    8.839649    9.715819    3.071145
  49 H     1.0000    0     1.008    6.699546    7.430983   -0.070783
  50 H     1.0000    0     1.008    5.157439    3.604363   -2.019310
  51 H     1.0000    0     1.008   -1.555029    0.217642   -4.610134
  52 H     1.0000    0     1.008   -0.531155   -0.100246   -9.061142
  53 H     1.0000    0     1.008    6.137708   -1.393565  -13.917039
  54 H     1.0000    0     1.008    7.002019   -3.136677  -11.193649
  55 H     1.0000    0     1.008    7.565314    0.168703  -11.324169
  56 H     1.0000    0     1.008    7.248402   -1.330018   -7.176156
  57 H     1.0000    0     1.008    6.204343   -1.046952   -2.740271
  58 H     1.0000    0     1.008   -9.473928    4.338286    0.032163
  59 H     1.0000    0     1.008  -10.177481    3.591893    3.198891
  60 H     1.0000    0     1.008  -14.045361    4.606791    0.977867
  61 H     1.0000    0     1.008  -13.294613    2.545149   -1.547502
  62 H     1.0000    0     1.008  -13.512082   -1.841423   -0.817140
  63 H     1.0000    0     1.008  -14.418249   -2.896034    2.223896
  64 H     1.0000    0     1.008  -10.418442   -1.648013    4.055252
  65 H     1.0000    0     1.008   -9.857635   -3.387725    1.263477
  66 H     1.0000    0     1.008   -5.867959    4.189920   -0.512675
  67 H     1.0000    0     1.008   -1.359478    3.660851   -0.889985
  68 H     1.0000    0     1.008   -1.656791   -3.730023    1.419044
  69 H     1.0000    0     1.008   -6.182558   -3.600554    1.951811

--------------------------------
INTERNAL COORDINATES (ANGSTROEM)
--------------------------------
 C      0   0   0     0.000000000000     0.00000000     0.00000000
 O      1   0   0     1.401100487436     0.00000000     0.00000000
 C      2   1   0     1.352015027760   118.30228908     0.00000000
 C      3   2   1     1.394055087142   116.35608693   179.06526064
 C      4   3   2     1.381667967183   119.98291776   180.39190723
 C      3   2   1     1.388709521300   124.78132129   359.60982627
 C      6   3   2     1.392749469315   119.81049088   179.86632948
 C      7   6   3     1.391621984944   122.99221401     0.08115010
 B      8   7   6     1.624068002125   123.81955239   179.71039308
 C      9   8   7     1.623341259514   113.47921495    16.12876407
 C     10   9   8     1.403511151343   121.23336600   290.45082436
 C     11  10   9     1.381464398818   122.95954647   180.05311463
 C     12  11  10     1.394157185423   119.98175475   359.90432359
 O     13  12  11     1.352759187262   116.36989974   179.73951001
 C     14  13  12     1.401064288938   118.23401842   178.56303953
 C     13  12  11     1.388029782727   118.78978536     0.17684619
 C     10   9   8     1.390588951274   123.36800446   110.86229838
 C      9   8   7     1.621274166358   110.13264915   144.80006675
 C     18   9   8     1.396784118513   126.27362771   124.25617946
 C     19  18   9     1.385791469074   122.82906037   180.77142845
 C     20  19  18     1.389838830964   120.24023241     0.00000000
 O     21  20  19     1.353327010706   116.56264724   179.78643276
 C     22  21  20     1.400684362695   118.22478035   180.41223383
 C     21  20  19     1.391367565903   118.70583812     0.26910449
 C     24  21  20     1.388589426310   119.68557060     0.07184049
 C      9   8   7     4.469449001953   109.95615652   260.34087553
 N     26   9   8     1.362546403043   178.08395210   225.56241849
 C     27  26   9     1.455332364559   120.41497980   278.56720858
 C     28  27  26     1.517756905823   111.12069701   159.90403156
 O     29  28  27     1.399885728286   111.82578261    53.76252544
 C     30  29  28     1.399677196297   109.84198642   298.90634842
 C     27  26  28     1.453306829411   119.93494311   208.24319454
 C     26   9   8     1.409009824078    56.58401042   165.32178329
 C     33  26   9     1.369219647246   120.47334692   359.43194616
 N     34  33  26     1.338545247701   123.46162345   359.55128664
 C     35  34  33     1.332221968232   117.16552548   359.93399951
 C     36  35  34     1.373872379115   123.32817771     0.10293855
 H      1   2   3     1.095297190615   112.40978707    61.37333505
 H      1   2   3     1.088253605614   106.69353943   180.09380336
 H      1   2   3     1.095105474017   112.41293246   298.83553358
 H      4   3   2     1.083025386076   119.19084285   359.37503675
 H      5   4   3     1.084676898230   117.96584422   178.37846581
 H      6   3   2     1.082144777770   121.42349534     0.65066571
 H      7   6   3     1.082810857601   117.41351301   181.42688703
 H     11  10   9     1.085921600449   119.54285050   359.74502082
 H     12  11  10     1.083088103015   120.81730778   179.91326070
 H     15  14  13     1.088267160347   106.71923686   181.01026290
 H     15  14  13     1.095359814645   112.44936706    62.27924474
 H     15  14  13     1.095141645005   112.34608999   299.74666886
 H     16  13  12     1.082177954318   121.41576950   179.58405494
 H     17  10   9     1.082975209165   119.41221123     0.93196951
 H     19  18   9     1.084383268514   120.58460009   359.81565524
 H     20  19  18     1.083021524150   120.60805018   179.55433321
 H     23  22  21     1.088340470629   106.72523549   180.01518829
 H     23  22  21     1.095325008798   112.44598954    61.27525040
 H     23  22  21     1.095370913739   112.41844591   298.73012567
 H     24  21  20     1.082165403126   121.49309891   179.26229138
 H     25  24  21     1.084626699750   117.80174609   178.28845184
 H     28  27  26     1.087604275176   110.47645136    40.81250391
 H     28  27  26     1.097537836932   110.22499325   282.23002477
 H     29  28  27     1.090690316978   109.27355161   173.00245496
 H     29  28  27     1.100000453044   109.29507552   290.77206367
 H     31  30  29     1.100021009028   110.69849760   298.93016656
 H     31  30  29     1.090688291151   107.77300566   181.33043950
 H     32  27  26     1.098032731746   110.80988411    77.05113595
 H     32  27  26     1.089155169065   109.86800685   318.18885441
 H     33  26   9     1.078201900707   122.47044029   178.98464687
 H     34  33  26     1.080755043352   120.62860471   179.87703821
 H     36  35  34     1.080452646322   116.12377434   181.08587487
 H     37  36  35     1.078159043436   116.99090345   181.73178018

---------------------------
INTERNAL COORDINATES (A.U.)
---------------------------
 C      0   0   0     0.000000000000     0.00000000     0.00000000
 O      1   0   0     2.647696207357     0.00000000     0.00000000
 C      2   1   0     2.554938131412   118.30228908     0.00000000
 C      3   2   1     2.634382330298   116.35608693   179.06526064
 C      4   3   2     2.610974065987   119.98291776   180.39190723
 C      3   2   1     2.624280674826   124.78132129   359.60982627
 C      6   3   2     2.631915070169   119.81049088   179.86632948
 C      7   6   3     2.629784433488   122.99221401     0.08115010
 B      8   7   6     3.069043746880   123.81955239   179.71039308
 C      9   8   7     3.067670402376   113.47921495    16.12876407
 C     10   9   8     2.652251701943   121.23336600   290.45082436
 C     11  10   9     2.610589377528   122.95954647   180.05311463
 C     12  11  10     2.634575268088   119.98175475   359.90432359
 O     13  12  11     2.556344389072   116.36989974   179.73951001
 C     14  13  12     2.647627802110   118.23401842   178.56303953
 C     13  12  11     2.622996155081   118.78978536     0.17684619
 C     10   9   8     2.627832282765   123.36800446   110.86229838
 C      9   8   7     3.063764162419   110.13264915   144.80006675
 C     18   9   8     2.639539452201   126.27362771   124.25617946
 C     19  18   9     2.618766355273   122.82906037   180.77142845
 C     20  19  18     2.626414760810   120.24023241     0.00000000
 O     21  20  19     2.557417419872   116.56264724   179.78643276
 C     22  21  20     2.646909845559   118.22478035   180.41223383
 C     21  20  19     2.629303651177   118.70583812     0.26910449
 C     24  21  20     2.624053728185   119.68557060     0.07184049
 C      9   8   7     8.446034583218   109.95615652   260.34087553
 N     26   9   8     2.574839546510   178.08395210   225.56241849
 C     27  26   9     2.750179602849   120.41497980   278.56720858
 C     28  27  26     2.868144889874   111.12069701   159.90403156
 O     29  28  27     2.645400645246   111.82578261    53.76252544
 C     30  29  28     2.645006576897   109.84198642   298.90634842
 C     27  26  28     2.746351896145   119.93494311   208.24319454
 C     26   9   8     2.662642687512    56.58401042   165.32178329
 C     33  26   9     2.587450150479   120.47334692   359.43194616
 N     34  33  26     2.529483936017   123.46162345   359.55128664
 C     35  34  33     2.517534669553   117.16552548   359.93399951
 C     36  35  34     2.596242539485   123.32817771     0.10293855
 H      1   2   3     2.069811725516   112.40978707    61.37333505
 H      1   2   3     2.056501278862   106.69353943   180.09380336
 H      1   2   3     2.069449433649   112.41293246   298.83553358
 H      4   3   2     2.046621375769   119.19084285   359.37503675
 H      5   4   3     2.049742281446   117.96584422   178.37846581
 H      6   3   2     2.044957267238   121.42349534     0.65066571
 H      7   6   3     2.046215975702   117.41351301   181.42688703
 H     11  10   9     2.052094427757   119.54285050   359.74502082
 H     12  11  10     2.046739893606   120.81730778   179.91326070
 H     15  14  13     2.056526893595   106.71923686   181.01026290
 H     15  14  13     2.069930067783   112.44936706    62.27924474
 H     15  14  13     2.069517786912   112.34608999   299.74666886
 H     16  13  12     2.045019961827   121.41576950   179.58405494
 H     17  10   9     2.046526555148   119.41221123     0.93196951
 H     19  18   9     2.049187401699   120.58460009   359.81565524
 H     20  19  18     2.046614077786   120.60805018   179.55433321
 H     23  22  21     2.056665429953   106.72523549   180.01518829
 H     23  22  21     2.069864294264   112.44598954    61.27525040
 H     23  22  21     2.069951042030   112.41844591   298.73012567
 H     24  21  20     2.044996243512   121.49309891   179.26229138
 H     25  24  21     2.049647420066   117.80174609   178.28845184
 H     28  27  26     2.055274222164   110.47645136    40.81250391
 H     28  27  26     2.074045933417   110.22499325   282.23002477
 H     29  28  27     2.061105996008   109.27355161   173.00245496
 H     29  28  27     2.078699603442   109.29507552   290.77206367
 H     31  30  29     2.078738448622   110.69849760   298.93016656
 H     31  30  29     2.061102167750   107.77300566   181.33043950
 H     32  27  26     2.074981149081   110.80988411    77.05113595
 H     32  27  26     2.058204986878   109.86800685   318.18885441
 H     33  26   9     2.037506309410   122.47044029   178.98464687
 H     34  33  26     2.042331049790   120.62860471   179.87703821
 H     36  35  34     2.041759602220   116.12377434   181.08587487
 H     37  36  35     2.037425320904   116.99090345   181.73178018

---------------------
BASIS SET INFORMATION
---------------------
There are 5 groups of distinct atoms

 Group   1 Type C   : 7s4p1d contracted to 3s2p1d pattern {511/31/1}
 Group   2 Type O   : 7s4p1d contracted to 3s2p1d pattern {511/31/1}
 Group   3 Type B   : 7s4p1d contracted to 3s2p1d pattern {511/31/1}
 Group   4 Type N   : 7s4p1d contracted to 3s2p1d pattern {511/31/1}
 Group   5 Type H   : 4s1p contracted to 2s1p pattern {31/1}

Atom   0C    basis set group =>   1
Atom   1O    basis set group =>   2
Atom   2C    basis set group =>   1
Atom   3C    basis set group =>   1
Atom   4C    basis set group =>   1
Atom   5C    basis set group =>   1
Atom   6C    basis set group =>   1
Atom   7C    basis set group =>   1
Atom   8B    basis set group =>   3
Atom   9C    basis set group =>   1
Atom  10C    basis set group =>   1
Atom  11C    basis set group =>   1
Atom  12C    basis set group =>   1
Atom  13O    basis set group =>   2
Atom  14C    basis set group =>   1
Atom  15C    basis set group =>   1
Atom  16C    basis set group =>   1
Atom  17C    basis set group =>   1
Atom  18C    basis set group =>   1
Atom  19C    basis set group =>   1
Atom  20C    basis set group =>   1
Atom  21O    basis set group =>   2
Atom  22C    basis set group =>   1
Atom  23C    basis set group =>   1
Atom  24C    basis set group =>   1
Atom  25C    basis set group =>   1
Atom  26N    basis set group =>   4
Atom  27C    basis set group =>   1
Atom  28C    basis set group =>   1
Atom  29O    basis set group =>   2
Atom  30C    basis set group =>   1
Atom  31C    basis set group =>   1
Atom  32C    basis set group =>   1
Atom  33C    basis set group =>   1
Atom  34N    basis set group =>   4
Atom  35C    basis set group =>   1
Atom  36C    basis set group =>   1
Atom  37H    basis set group =>   5
Atom  38H    basis set group =>   5
Atom  39H    basis set group =>   5
Atom  40H    basis set group =>   5
Atom  41H    basis set group =>   5
Atom  42H    basis set group =>   5
Atom  43H    basis set group =>   5
Atom  44H    basis set group =>   5
Atom  45H    basis set group =>   5
Atom  46H    basis set group =>   5
Atom  47H    basis set group =>   5
Atom  48H    basis set group =>   5
Atom  49H    basis set group =>   5
Atom  50H    basis set group =>   5
Atom  51H    basis set group =>   5
Atom  52H    basis set group =>   5
Atom  53H    basis set group =>   5
Atom  54H    basis set group =>   5
Atom  55H    basis set group =>   5
Atom  56H    basis set group =>   5
Atom  57H    basis set group =>   5
Atom  58H    basis set group =>   5
Atom  59H    basis set group =>   5
Atom  60H    basis set group =>   5
Atom  61H    basis set group =>   5
Atom  62H    basis set group =>   5
Atom  63H    basis set group =>   5
Atom  64H    basis set group =>   5
Atom  65H    basis set group =>   5
Atom  66H    basis set group =>   5
Atom  67H    basis set group =>   5
Atom  68H    basis set group =>   5
Atom  69H    basis set group =>   5
------------------------------------------------------------------------------
                           ORCA GTO INTEGRAL CALCULATION
------------------------------------------------------------------------------
------------------------------------------------------------------------------
                   ___                                                        
                  /   \      - P O W E R E D   B Y -                         
                 /     \                                                     
                 |  |  |   _    _      __       _____    __    __             
                 |  |  |  | |  | |    /  \     |  _  \  |  |  /  |          
                  \  \/   | |  | |   /    \    | | | |  |  | /  /          
                 / \  \   | |__| |  /  /\  \   | |_| |  |  |/  /          
                |  |  |   |  __  | /  /__\  \  |    /   |      \           
                |  |  |   | |  | | |   __   |  |    \   |  |\   \          
                \     /   | |  | | |  |  |  |  | |\  \  |  | \   \       
                 \___/    |_|  |_| |__|  |__|  |_| \__\ |__|  \__/        
                                                                              
                      - O R C A' S   B I G   F R I E N D -                    
                                      &                                       
                       - I N T E G R A L  F E E D E R -                       
                                                                              
 v1 FN, 2020, v2 2021                                                         
------------------------------------------------------------------------------


Reading SHARK input file START_a001_b001.SHARKINP.tmp ... ok
----------------------
SHARK INTEGRAL PACKAGE
----------------------

Number of atoms                             ...     70
Number of basis functions                   ...    683
Number of shells                            ...    321
Maximum angular momentum                    ...      2
Integral batch strategy                     ... SHARK/LIBINT Hybrid
RI-J (if used) integral strategy            ... SPLIT-RIJ (Revised 2003 algorithm where possible)
Printlevel                                  ...      1
Contraction scheme used                     ... SEGMENTED contraction
Coulomb Range Separation                    ... NOT USED
Exchange Range Separation                   ... NOT USED
Finite Nucleus Model                        ... NOT USED
Auxiliary Coulomb fitting basis             ... NOT available
Auxiliary J/K fitting basis                 ... NOT available
Auxiliary Correlation fitting basis         ... NOT available
Auxiliary 'external' fitting basis          ... NOT available
Integral threshold                          ...     1.000000e-10
Primitive cut-off                           ...     1.000000e-11
Primitive pair pre-selection threshold      ...     1.000000e-11

Calculating pre-screening integrals         ... done (  0.2 sec) Dimension = 321
Organizing shell pair data                  ... done (  0.1 sec)
Shell pair information
Total number of shell pairs                 ...     51681
Shell pairs after pre-screening             ...     27363
Total number of primitive shell pairs       ...    186325
Primitive shell pairs kept                  ...     59582
          la=0 lb=0:   8669 shell pairs
          la=1 lb=0:  10347 shell pairs
          la=1 lb=1:   3129 shell pairs
          la=2 lb=0:   3113 shell pairs
          la=2 lb=1:   1846 shell pairs
          la=2 lb=2:    259 shell pairs

Calculating one electron integrals          ... done (  0.3 sec)
Calculating Nuclear repulsion               ... done (  0.0 sec) ENN=   3865.148258769208 Eh

SHARK setup successfully completed in   0.9 seconds

Maximum memory used throughout the entire GTOINT-calculation: 149.2 MB
-------------------------------------------------------------------------------
                                 ORCA SCF
-------------------------------------------------------------------------------

------------
SCF SETTINGS
------------
Hamiltonian:
 Ab initio Hamiltonian  Method          .... Hartree-Fock(GTOs)


General Settings:
 Integral files         IntName         .... START_a001_b001
 Hartree-Fock type      HFTyp           .... RHF
 Total Charge           Charge          ....    0
 Multiplicity           Mult            ....    1
 Number of Electrons    NEL             ....  264
 Basis Dimension        Dim             ....  683
 Nuclear Repulsion      ENuc            ....   3865.1482587692 Eh

Convergence Acceleration:
 DIIS                   CNVDIIS         .... on
   Start iteration      DIISMaxIt       ....    12
   Startup error        DIISStart       ....  0.200000
   # of expansion vecs  DIISMaxEq       ....     5
   Bias factor          DIISBfac        ....   1.050
   Max. coefficient     DIISMaxC        ....  10.000
 Trust-Rad. Augm. Hess. CNVTRAH         .... auto
   Auto Start mean grad. ratio tolernc. ....  1.125000
   Auto Start start iteration           ....    20
   Auto Start num. interpolation iter.  ....    10
   Max. Number of Micro iterations      ....    16
   Max. Number of Macro iterations      .... Maxiter - #DIIS iter
   Number of Davidson start vectors     ....     2
   Converg. threshold I  (grad. norm)   ....   5.000e-05
   Converg. threshold II (energy diff.) ....   1.000e-06
   Grad. Scal. Fac. for Micro threshold ....   0.100
   Minimum threshold for Micro iter.    ....   0.010
   NR start threshold (gradient norm)   ....   0.001
   Initial trust radius                 ....   0.400
   Minimum AH scaling param. (alpha)    ....   1.000
   Maximum AH scaling param. (alpha)    .... 1000.000
   Orbital update algorithm             .... Taylor
   White noise on init. David. guess    .... on
   Maximum white noise                  ....   0.010
   Quad. conv. algorithm                .... NR
 SOSCF                  CNVSOSCF        .... on
   Start iteration      SOSCFMaxIt      ....   150
   Startup grad/error   SOSCFStart      ....  0.003300
 Level Shifting         CNVShift        .... on
   Level shift para.    LevelShift      ....    0.2500
   Turn off err/grad.   ShiftErr        ....    0.0010
 Zerner damping         CNVZerner       .... off
 Static damping         CNVDamp         .... on
   Fraction old density DampFac         ....    0.7000
   Max. Damping (<1)    DampMax         ....    0.9800
   Min. Damping (>=0)   DampMin         ....    0.0000
   Turn off err/grad.   DampErr         ....    0.1000
 Fernandez-Rico         CNVRico         .... off

SCF Procedure:
 Maximum # iterations   MaxIter         ....     0
 SCF integral mode      SCFMode         .... Direct
   Integral package                     .... SHARK and LIBINT hybrid scheme
 Reset frequency        DirectResetFreq ....    20
 Integral Threshold     Thresh          ....  1.000e-10 Eh
 Primitive CutOff       TCut            ....  1.000e-11 Eh

Convergence Tolerance:
 Convergence Check Mode ConvCheckMode   .... Total+1el-Energy
 Convergence forced     ConvForced      .... 0
 Energy Change          TolE            ....  1.000e-06 Eh
 1-El. energy change                    ....  1.000e-03 Eh
 Orbital Gradient       TolG            ....  5.000e-05
 Orbital Rotation angle TolX            ....  5.000e-05
 DIIS Error             TolErr          ....  1.000e-06


Diagonalization of the overlap matrix:
Smallest eigenvalue                        ... 2.146e-04
Time for diagonalization                   ...    0.075 sec
Threshold for overlap eigenvalues          ... 1.000e-08
Number of eigenvalues below threshold      ... 0
Time for construction of square roots      ...    0.030 sec
Total time needed                          ...    0.107 sec

Time for model grid setup =    3.154 sec

------------------------------
INITIAL GUESS: MODEL POTENTIAL
------------------------------
Loading Hartree-Fock densities                     ... done
Calculating cut-offs                               ... done
Initializing the effective Hamiltonian             ... done
Setting up the integral package (SHARK)            ... done
Starting the Coulomb interaction                   ... done (   3.5 sec)
Reading the grid                                   ... done
Mapping shells                                     ... done
Starting the XC term evaluation                    ... done (   1.0 sec)
Transforming the Hamiltonian                       ... done (   0.0 sec)
Diagonalizing the Hamiltonian                      ... done (   0.1 sec)
Back transforming the eigenvectors                 ... done (   0.0 sec)
Now organizing SCF variables                       ... done
                      ------------------
                      INITIAL GUESS DONE (   7.8 sec)
                      ------------------

     ****MaxIter==0 has been chosen - skipping the SCF****

!!!!!!!!!!!!!!!!!!!!!!!!!!!!!!!!!!!!!!!!!!!!!!!!!!!!!!!!!!!
!! SERIOUS WARNING: The orbitals and populations did NOT !!
!!                  come from a CONVERGED calculation    !!
!!!!!!!!!!!!!!!!!!!!!!!!!!!!!!!!!!!!!!!!!!!!!!!!!!!!!!!!!!!

THE WAVEFUNCTION AND DENSITY WILL STILL BE STORED BUT BE CAREFUL
MAKE SURE THAT WHAT YOU INPUT MAKES ACTUALLY SENSE!

             **** DENSITY START_a001_b001.scfp WAS UPDATED ****
----------------
ORBITAL ENERGIES
----------------

  NO   OCC          E(Eh)            E(eV) 
   0   2.0000     -18.785452      -511.1781 
   1   2.0000     -18.785321      -511.1746 
   2   2.0000     -18.785277      -511.1734 
   3   2.0000     -18.779241      -511.0091 
   4   2.0000     -14.067698      -382.8015 
   5   2.0000     -14.046470      -382.2239 
   6   2.0000      -9.962863      -271.1033 
   7   2.0000      -9.962561      -271.0951 
   8   2.0000      -9.962385      -271.0903 
   9   2.0000      -9.962332      -271.0888 
  10   2.0000      -9.962033      -271.0807 
  11   2.0000      -9.962017      -271.0803 
  12   2.0000      -9.961991      -271.0796 
  13   2.0000      -9.961912      -271.0774 
  14   2.0000      -9.961884      -271.0766 
  15   2.0000      -9.961855      -271.0759 
  16   2.0000      -9.961817      -271.0748 
  17   2.0000      -9.961801      -271.0744 
  18   2.0000      -9.961768      -271.0735 
  19   2.0000      -9.961710      -271.0719 
  20   2.0000      -9.961399      -271.0634 
  21   2.0000      -9.961251      -271.0594 
  22   2.0000      -9.961185      -271.0576 
  23   2.0000      -9.961124      -271.0560 
  24   2.0000      -9.960951      -271.0513 
  25   2.0000      -9.957505      -270.9575 
  26   2.0000      -9.957502      -270.9574 
  27   2.0000      -9.957492      -270.9571 
  28   2.0000      -9.956033      -270.9174 
  29   2.0000      -9.955980      -270.9160 
  30   2.0000      -9.955878      -270.9132 
  31   2.0000      -9.952187      -270.8128 
  32   2.0000      -9.952083      -270.8100 
  33   2.0000      -9.951801      -270.8023 
  34   2.0000      -9.951724      -270.8002 
  35   2.0000      -9.951708      -270.7997 
  36   2.0000      -6.592891      -179.4017 
  37   2.0000      -1.075470       -29.2650 
  38   2.0000      -1.075183       -29.2572 
  39   2.0000      -1.075095       -29.2548 
  40   2.0000      -1.070786       -29.1376 
  41   2.0000      -1.015784       -27.6409 
  42   2.0000      -0.986195       -26.8357 
  43   2.0000      -0.921626       -25.0787 
  44   2.0000      -0.916401       -24.9365 
  45   2.0000      -0.915952       -24.9243 
  46   2.0000      -0.858859       -23.3707 
  47   2.0000      -0.829004       -22.5584 
  48   2.0000      -0.824796       -22.4438 
  49   2.0000      -0.819602       -22.3025 
  50   2.0000      -0.816795       -22.2261 
  51   2.0000      -0.814401       -22.1610 
  52   2.0000      -0.811538       -22.0831 
  53   2.0000      -0.807346       -21.9690 
  54   2.0000      -0.805426       -21.9168 
  55   2.0000      -0.770782       -20.9740 
  56   2.0000      -0.753627       -20.5072 
  57   2.0000      -0.746249       -20.3065 
  58   2.0000      -0.745234       -20.2789 
  59   2.0000      -0.730500       -19.8779 
  60   2.0000      -0.701733       -19.0951 
  61   2.0000      -0.693509       -18.8713 
  62   2.0000      -0.685773       -18.6608 
  63   2.0000      -0.683101       -18.5881 
  64   2.0000      -0.681450       -18.5432 
  65   2.0000      -0.673087       -18.3156 
  66   2.0000      -0.662367       -18.0239 
  67   2.0000      -0.661127       -17.9902 
  68   2.0000      -0.641850       -17.4656 
  69   2.0000      -0.632744       -17.2179 
  70   2.0000      -0.615392       -16.7457 
  71   2.0000      -0.610728       -16.6187 
  72   2.0000      -0.610020       -16.5995 
  73   2.0000      -0.603710       -16.4278 
  74   2.0000      -0.601494       -16.3675 
  75   2.0000      -0.590428       -16.0664 
  76   2.0000      -0.585077       -15.9208 
  77   2.0000      -0.580604       -15.7990 
  78   2.0000      -0.562281       -15.3004 
  79   2.0000      -0.560865       -15.2619 
  80   2.0000      -0.549546       -14.9539 
  81   2.0000      -0.545079       -14.8323 
  82   2.0000      -0.543331       -14.7848 
  83   2.0000      -0.533535       -14.5182 
  84   2.0000      -0.529951       -14.4207 
  85   2.0000      -0.525429       -14.2977 
  86   2.0000      -0.525390       -14.2966 
  87   2.0000      -0.525254       -14.2929 
  88   2.0000      -0.521328       -14.1860 
  89   2.0000      -0.520457       -14.1623 
  90   2.0000      -0.519624       -14.1397 
  91   2.0000      -0.518184       -14.1005 
  92   2.0000      -0.515781       -14.0351 
  93   2.0000      -0.512455       -13.9446 
  94   2.0000      -0.510671       -13.8961 
  95   2.0000      -0.508784       -13.8447 
  96   2.0000      -0.507752       -13.8166 
  97   2.0000      -0.496682       -13.5154 
  98   2.0000      -0.495038       -13.4707 
  99   2.0000      -0.494845       -13.4654 
 100   2.0000      -0.492673       -13.4063 
 101   2.0000      -0.485394       -13.2083 
 102   2.0000      -0.468440       -12.7469 
 103   2.0000      -0.461404       -12.5554 
 104   2.0000      -0.459711       -12.5094 
 105   2.0000      -0.459016       -12.4905 
 106   2.0000      -0.454849       -12.3771 
 107   2.0000      -0.452100       -12.3023 
 108   2.0000      -0.445142       -12.1129 
 109   2.0000      -0.441113       -12.0033 
 110   2.0000      -0.437575       -11.9070 
 111   2.0000      -0.436214       -11.8700 
 112   2.0000      -0.433022       -11.7831 
 113   2.0000      -0.432052       -11.7567 
 114   2.0000      -0.423788       -11.5319 
 115   2.0000      -0.409709       -11.1488 
 116   2.0000      -0.409187       -11.1345 
 117   2.0000      -0.409042       -11.1306 
 118   2.0000      -0.406076       -11.0499 
 119   2.0000      -0.400882       -10.9086 
 120   2.0000      -0.398176       -10.8349 
 121   2.0000      -0.396277       -10.7832 
 122   2.0000      -0.394165       -10.7258 
 123   2.0000      -0.361367        -9.8333 
 124   2.0000      -0.356634        -9.7045 
 125   2.0000      -0.354436        -9.6447 
 126   2.0000      -0.354020        -9.6334 
 127   2.0000      -0.352418        -9.5898 
 128   2.0000      -0.324156        -8.8207 
 129   2.0000      -0.318923        -8.6783 
 130   2.0000      -0.316721        -8.6184 
 131   2.0000      -0.310694        -8.4544 
 132   0.0000      -0.173550        -4.7225 
 133   0.0000      -0.166369        -4.5271 
 134   0.0000      -0.162120        -4.4115 
 135   0.0000      -0.157761        -4.2929 
 136   0.0000      -0.156052        -4.2464 
 137   0.0000      -0.153818        -4.1856 
 138   0.0000      -0.147919        -4.0251 
 139   0.0000      -0.143765        -3.9121 
 140   0.0000      -0.035574        -0.9680 
 141   0.0000      -0.030447        -0.8285 
 142   0.0000      -0.029426        -0.8007 
 143   0.0000      -0.025730        -0.7002 
 144   0.0000      -0.022238        -0.6051 
 145   0.0000      -0.020454        -0.5566 
 146   0.0000      -0.019630        -0.5342 
 147   0.0000      -0.014908        -0.4057 
 148   0.0000      -0.012602        -0.3429 
 149   0.0000      -0.009846        -0.2679 
 150   0.0000      -0.008823        -0.2401 
 151   0.0000      -0.007437        -0.2024 
 152   0.0000      -0.006737        -0.1833 
 153   0.0000      -0.002912        -0.0792 
 154   0.0000       0.001964         0.0534 
 155   0.0000       0.006127         0.1667 
 156   0.0000       0.009688         0.2636 
 157   0.0000       0.010038         0.2732 
 158   0.0000       0.015696         0.4271 
 159   0.0000       0.018942         0.5154 
 160   0.0000       0.021002         0.5715 
 161   0.0000       0.027693         0.7536 
 162   0.0000       0.030009         0.8166 
 163   0.0000       0.030264         0.8235 
 164   0.0000       0.034056         0.9267 
 165   0.0000       0.039638         1.0786 
 166   0.0000       0.043001         1.1701 
 167   0.0000       0.043901         1.1946 
 168   0.0000       0.046129         1.2552 
 169   0.0000       0.046583         1.2676 
 170   0.0000       0.047521         1.2931 
 171   0.0000       0.050314         1.3691 
 172   0.0000       0.053199         1.4476 
 173   0.0000       0.054100         1.4721 
 174   0.0000       0.054152         1.4736 
 175   0.0000       0.054251         1.4763 
 176   0.0000       0.057071         1.5530 
 177   0.0000       0.061699         1.6789 
 178   0.0000       0.065196         1.7741 
 179   0.0000       0.067732         1.8431 
 180   0.0000       0.077507         2.1091 
 181   0.0000       0.078129         2.1260 
 182   0.0000       0.080281         2.1846 
 183   0.0000       0.084341         2.2950 
 184   0.0000       0.087434         2.3792 
 185   0.0000       0.091293         2.4842 
 186   0.0000       0.096778         2.6335 
 187   0.0000       0.102486         2.7888 
 188   0.0000       0.104109         2.8329 
 189   0.0000       0.105176         2.8620 
 190   0.0000       0.106274         2.8919 
 191   0.0000       0.113725         3.0946 
 192   0.0000       0.119387         3.2487 
 193   0.0000       0.128965         3.5093 
 194   0.0000       0.131319         3.5734 
 195   0.0000       0.133535         3.6337 
 196   0.0000       0.140289         3.8175 
 197   0.0000       0.144657         3.9363 
 198   0.0000       0.150205         4.0873 
 199   0.0000       0.151785         4.1303 
 200   0.0000       0.161502         4.3947 
 201   0.0000       0.163799         4.4572 
 202   0.0000       0.169072         4.6007 
 203   0.0000       0.179872         4.8946 
 204   0.0000       0.184475         5.0198 
 205   0.0000       0.190683         5.1888 
 206   0.0000       0.195382         5.3166 
 207   0.0000       0.196749         5.3538 
 208   0.0000       0.200557         5.4574 
 209   0.0000       0.211224         5.7477 
 210   0.0000       0.214058         5.8248 
 211   0.0000       0.226796         6.1714 
 212   0.0000       0.240487         6.5440 
 213   0.0000       0.245564         6.6821 
 214   0.0000       0.249690         6.7944 
 215   0.0000       0.255379         6.9492 
 216   0.0000       0.259197         7.0531 
 217   0.0000       0.265216         7.2169 
 218   0.0000       0.276955         7.5363 
 219   0.0000       0.282048         7.6749 
 220   0.0000       0.290710         7.9106 
 221   0.0000       0.293967         7.9992 
 222   0.0000       0.299540         8.1509 
 223   0.0000       0.300337         8.1726 
 224   0.0000       0.307035         8.3548 
 225   0.0000       0.308928         8.4064 
 226   0.0000       0.310383         8.4460 
 227   0.0000       0.314429         8.5560 
 228   0.0000       0.316468         8.6115 
 229   0.0000       0.319070         8.6823 
 230   0.0000       0.320353         8.7172 
 231   0.0000       0.323699         8.8083 
 232   0.0000       0.325795         8.8653 
 233   0.0000       0.327246         8.9048 
 234   0.0000       0.328271         8.9327 
 235   0.0000       0.330372         8.9899 
 236   0.0000       0.330604         8.9962 
 237   0.0000       0.331924         9.0321 
 238   0.0000       0.334285         9.0964 
 239   0.0000       0.337632         9.1874 
 240   0.0000       0.339599         9.2410 
 241   0.0000       0.344243         9.3673 
 242   0.0000       0.346681         9.4337 
 243   0.0000       0.350311         9.5324 
 244   0.0000       0.352995         9.6055 
 245   0.0000       0.354691         9.6516 
 246   0.0000       0.359093         9.7714 
 247   0.0000       0.362586         9.8665 
 248   0.0000       0.364756         9.9255 
 249   0.0000       0.372592        10.1387 
 250   0.0000       0.375934        10.2297 
 251   0.0000       0.385882        10.5004 
 252   0.0000       0.393186        10.6991 
 253   0.0000       0.394528        10.7356 
 254   0.0000       0.397717        10.8224 
 255   0.0000       0.402806        10.9609 
 256   0.0000       0.406360        11.0576 
 257   0.0000       0.408217        11.1081 
 258   0.0000       0.414488        11.2788 
 259   0.0000       0.418838        11.3971 
 260   0.0000       0.419780        11.4228 
 261   0.0000       0.424321        11.5464 
 262   0.0000       0.427459        11.6317 
 263   0.0000       0.429923        11.6988 
 264   0.0000       0.439391        11.9564 
 265   0.0000       0.444062        12.0835 
 266   0.0000       0.452124        12.3029 
 267   0.0000       0.455638        12.3985 
 268   0.0000       0.470967        12.8157 
 269   0.0000       0.477975        13.0064 
 270   0.0000       0.487865        13.2755 
 271   0.0000       0.491188        13.3659 
 272   0.0000       0.491628        13.3779 
 273   0.0000       0.494204        13.4480 
 274   0.0000       0.495052        13.4711 
 275   0.0000       0.498234        13.5576 
 276   0.0000       0.500604        13.6221 
 277   0.0000       0.502628        13.6772 
 278   0.0000       0.504609        13.7311 
 279   0.0000       0.506762        13.7897 
 280   0.0000       0.507740        13.8163 
 281   0.0000       0.509014        13.8510 
 282   0.0000       0.512093        13.9347 
 283   0.0000       0.513399        13.9703 
 284   0.0000       0.513857        13.9828 
 285   0.0000       0.521641        14.1946 
 286   0.0000       0.522102        14.2071 
 287   0.0000       0.524311        14.2672 
 288   0.0000       0.525605        14.3024 
 289   0.0000       0.527252        14.3472 
 290   0.0000       0.528519        14.3817 
 291   0.0000       0.528686        14.3863 
 292   0.0000       0.533675        14.5220 
 293   0.0000       0.538287        14.6475 
 294   0.0000       0.539254        14.6739 
 295   0.0000       0.541772        14.7424 
 296   0.0000       0.543705        14.7950 
 297   0.0000       0.545317        14.8388 
 298   0.0000       0.547127        14.8881 
 299   0.0000       0.548661        14.9298 
 300   0.0000       0.550677        14.9847 
 301   0.0000       0.553831        15.0705 
 302   0.0000       0.554400        15.0860 
 303   0.0000       0.555199        15.1077 
 304   0.0000       0.558061        15.1856 
 305   0.0000       0.561630        15.2827 
 306   0.0000       0.565600        15.3908 
 307   0.0000       0.567651        15.4466 
 308   0.0000       0.568389        15.4666 
 309   0.0000       0.572276        15.5724 
 310   0.0000       0.575389        15.6571 
 311   0.0000       0.580471        15.7954 
 312   0.0000       0.583775        15.8853 
 313   0.0000       0.587312        15.9816 
 314   0.0000       0.591792        16.1035 
 315   0.0000       0.597576        16.2609 
 316   0.0000       0.599563        16.3149 
 317   0.0000       0.606410        16.5012 
 318   0.0000       0.608528        16.5589 
 319   0.0000       0.617910        16.8142 
 320   0.0000       0.621568        16.9137 
 321   0.0000       0.625173        17.0118 
 322   0.0000       0.628179        17.0936 
 323   0.0000       0.630960        17.1693 
 324   0.0000       0.638399        17.3717 
 325   0.0000       0.645251        17.5582 
 326   0.0000       0.649204        17.6657 
 327   0.0000       0.654581        17.8120 
 328   0.0000       0.663429        18.0528 
 329   0.0000       0.671674        18.2772 
 330   0.0000       0.677954        18.4481 
 331   0.0000       0.680148        18.5078 
 332   0.0000       0.685124        18.6432 
 333   0.0000       0.690849        18.7990 
 334   0.0000       0.698302        19.0018 
 335   0.0000       0.704792        19.1784 
 336   0.0000       0.706438        19.2232 
 337   0.0000       0.714626        19.4460 
 338   0.0000       0.720235        19.5986 
 339   0.0000       0.723976        19.7004 
 340   0.0000       0.739649        20.1269 
 341   0.0000       0.750495        20.4220 
 342   0.0000       0.759897        20.6778 
 343   0.0000       0.763455        20.7747 
 344   0.0000       0.776545        21.1309 
 345   0.0000       0.779082        21.1999 
 346   0.0000       0.788608        21.4591 
 347   0.0000       0.796438        21.6722 
 348   0.0000       0.813299        22.1310 
 349   0.0000       0.814987        22.1769 
 350   0.0000       0.835408        22.7326 
 351   0.0000       0.837869        22.7996 
 352   0.0000       0.857057        23.3217 
 353   0.0000       0.860200        23.4072 
 354   0.0000       0.862836        23.4790 
 355   0.0000       0.863381        23.4938 
 356   0.0000       0.871156        23.7054 
 357   0.0000       0.876633        23.8544 
 358   0.0000       0.887912        24.1613 
 359   0.0000       0.890935        24.2436 
 360   0.0000       0.893676        24.3182 
 361   0.0000       0.906307        24.6619 
 362   0.0000       0.918387        24.9906 
 363   0.0000       0.931153        25.3379 
 364   0.0000       0.935882        25.4666 
 365   0.0000       0.952867        25.9288 
 366   0.0000       0.956449        26.0263 
 367   0.0000       0.959803        26.1176 
 368   0.0000       0.968532        26.3551 
 369   0.0000       0.976441        26.5703 
 370   0.0000       0.982107        26.7245 
 371   0.0000       0.987891        26.8819 
 372   0.0000       0.989313        26.9206 
 373   0.0000       0.999096        27.1868 
 374   0.0000       1.002545        27.2806 
 375   0.0000       1.012992        27.5649 
 376   0.0000       1.021942        27.8085 
 377   0.0000       1.026736        27.9389 
 378   0.0000       1.042922        28.3793 
 379   0.0000       1.048345        28.5269 
 380   0.0000       1.050385        28.5824 
 381   0.0000       1.054537        28.6954 
 382   0.0000       1.057489        28.7757 
 383   0.0000       1.065224        28.9862 
 384   0.0000       1.071017        29.1439 
 385   0.0000       1.073776        29.2189 
 386   0.0000       1.080967        29.4146 
 387   0.0000       1.082501        29.4563 
 388   0.0000       1.086062        29.5532 
 389   0.0000       1.091305        29.6959 
 390   0.0000       1.094966        29.7955 
 391   0.0000       1.099831        29.9279 
 392   0.0000       1.106284        30.1035 
 393   0.0000       1.108394        30.1609 
 394   0.0000       1.121964        30.5302 
 395   0.0000       1.128446        30.7066 
 396   0.0000       1.134761        30.8784 
 397   0.0000       1.140378        31.0313 
 398   0.0000       1.146613        31.2009 
 399   0.0000       1.148406        31.2497 
 400   0.0000       1.151645        31.3378 
 401   0.0000       1.165421        31.7127 
 402   0.0000       1.167910        31.7804 
 403   0.0000       1.174044        31.9474 
 404   0.0000       1.188386        32.3376 
 405   0.0000       1.192236        32.4424 
 406   0.0000       1.199280        32.6341 
 407   0.0000       1.200965        32.6799 
 408   0.0000       1.206364        32.8268 
 409   0.0000       1.213161        33.0118 
 410   0.0000       1.238683        33.7063 
 411   0.0000       1.247990        33.9595 
 412   0.0000       1.260017        34.2868 
 413   0.0000       1.277206        34.7545 
 414   0.0000       1.286031        34.9947 
 415   0.0000       1.290780        35.1239 
 416   0.0000       1.302800        35.4510 
 417   0.0000       1.306983        35.5648 
 418   0.0000       1.309761        35.6404 
 419   0.0000       1.314825        35.7782 
 420   0.0000       1.325352        36.0647 
 421   0.0000       1.339993        36.4631 
 422   0.0000       1.342002        36.5177 
 423   0.0000       1.347575        36.6694 
 424   0.0000       1.355879        36.8954 
 425   0.0000       1.363060        37.0907 
 426   0.0000       1.364578        37.1320 
 427   0.0000       1.380435        37.5635 
 428   0.0000       1.383516        37.6474 
 429   0.0000       1.383692        37.6522 
 430   0.0000       1.384428        37.6722 
 431   0.0000       1.395993        37.9869 
 432   0.0000       1.400693        38.1148 
 433   0.0000       1.407609        38.3030 
 434   0.0000       1.429079        38.8872 
 435   0.0000       1.435490        39.0617 
 436   0.0000       1.451999        39.5109 
 437   0.0000       1.457406        39.6580 
 438   0.0000       1.474624        40.1266 
 439   0.0000       1.484623        40.3987 
 440   0.0000       1.487175        40.4681 
 441   0.0000       1.491485        40.5854 
 442   0.0000       1.496162        40.7126 
 443   0.0000       1.511904        41.1410 
 444   0.0000       1.524453        41.4825 
 445   0.0000       1.528246        41.5857 
 446   0.0000       1.530351        41.6430 
 447   0.0000       1.538499        41.8647 
 448   0.0000       1.541860        41.9561 
 449   0.0000       1.544685        42.0330 
 450   0.0000       1.549094        42.1530 
 451   0.0000       1.555338        42.3229 
 452   0.0000       1.560937        42.4753 
 453   0.0000       1.563335        42.5405 
 454   0.0000       1.566177        42.6178 
 455   0.0000       1.567755        42.6608 
 456   0.0000       1.568076        42.6695 
 457   0.0000       1.569494        42.7081 
 458   0.0000       1.572366        42.7863 
 459   0.0000       1.577267        42.9196 
 460   0.0000       1.578953        42.9655 
 461   0.0000       1.588841        43.2346 
 462   0.0000       1.589788        43.2603 
 463   0.0000       1.592469        43.3333 
 464   0.0000       1.593660        43.3657 
 465   0.0000       1.602007        43.5928 
 466   0.0000       1.610767        43.8312 
 467   0.0000       1.612741        43.8849 
 468   0.0000       1.617724        44.0205 
 469   0.0000       1.620402        44.0934 
 470   0.0000       1.624276        44.1988 
 471   0.0000       1.629700        44.3464 
 472   0.0000       1.631550        44.3967 
 473   0.0000       1.633286        44.4440 
 474   0.0000       1.635059        44.4922 
 475   0.0000       1.637184        44.5500 
 476   0.0000       1.639998        44.6266 
 477   0.0000       1.640297        44.6348 
 478   0.0000       1.641082        44.6561 
 479   0.0000       1.647080        44.8193 
 480   0.0000       1.649505        44.8853 
 481   0.0000       1.653982        45.0071 
 482   0.0000       1.659125        45.1471 
 483   0.0000       1.660700        45.1899 
 484   0.0000       1.667195        45.3667 
 485   0.0000       1.679515        45.7019 
 486   0.0000       1.681870        45.7660 
 487   0.0000       1.682842        45.7925 
 488   0.0000       1.690667        46.0054 
 489   0.0000       1.700042        46.2605 
 490   0.0000       1.707682        46.4684 
 491   0.0000       1.712926        46.6111 
 492   0.0000       1.715892        46.6918 
 493   0.0000       1.716332        46.7038 
 494   0.0000       1.717834        46.7446 
 495   0.0000       1.718160        46.7535 
 496   0.0000       1.725318        46.9483 
 497   0.0000       1.728559        47.0365 
 498   0.0000       1.732865        47.1536 
 499   0.0000       1.734738        47.2046 
 500   0.0000       1.735355        47.2214 
 501   0.0000       1.747355        47.5480 
 502   0.0000       1.750478        47.6329 
 503   0.0000       1.758338        47.8468 
 504   0.0000       1.762003        47.9465 
 505   0.0000       1.771382        48.2017 
 506   0.0000       1.772914        48.2434 
 507   0.0000       1.776027        48.3281 
 508   0.0000       1.779836        48.4318 
 509   0.0000       1.784150        48.5492 
 510   0.0000       1.788815        48.6761 
 511   0.0000       1.791754        48.7561 
 512   0.0000       1.802111        49.0379 
 513   0.0000       1.806558        49.1589 
 514   0.0000       1.813645        49.3518 
 515   0.0000       1.814762        49.3822 
 516   0.0000       1.826264        49.6952 
 517   0.0000       1.826936        49.7135 
 518   0.0000       1.830982        49.8235 
 519   0.0000       1.832655        49.8691 
 520   0.0000       1.836523        49.9743 
 521   0.0000       1.839053        50.0432 
 522   0.0000       1.850469        50.3538 
 523   0.0000       1.854354        50.4595 
 524   0.0000       1.871437        50.9244 
 525   0.0000       1.885125        51.2969 
 526   0.0000       1.885658        51.3113 
 527   0.0000       1.909365        51.9565 
 528   0.0000       1.916850        52.1601 
 529   0.0000       1.922720        52.3199 
 530   0.0000       1.928431        52.4753 
 531   0.0000       1.938976        52.7622 
 532   0.0000       1.944108        52.9019 
 533   0.0000       1.951707        53.1086 
 534   0.0000       1.958655        53.2977 
 535   0.0000       1.963784        53.4373 
 536   0.0000       1.965318        53.4790 
 537   0.0000       1.976032        53.7706 
 538   0.0000       1.978047        53.8254 
 539   0.0000       1.980087        53.8809 
 540   0.0000       1.982429        53.9446 
 541   0.0000       1.991739        54.1980 
 542   0.0000       2.001930        54.4753 
 543   0.0000       2.003847        54.5274 
 544   0.0000       2.006783        54.6073 
 545   0.0000       2.011723        54.7418 
 546   0.0000       2.017189        54.8905 
 547   0.0000       2.026073        55.1323 
 548   0.0000       2.027172        55.1622 
 549   0.0000       2.031897        55.2907 
 550   0.0000       2.040492        55.5246 
 551   0.0000       2.046541        55.6892 
 552   0.0000       2.050949        55.8091 
 553   0.0000       2.055977        55.9460 
 554   0.0000       2.069817        56.3226 
 555   0.0000       2.072928        56.4072 
 556   0.0000       2.076836        56.5136 
 557   0.0000       2.080649        56.6173 
 558   0.0000       2.085844        56.7587 
 559   0.0000       2.099946        57.1424 
 560   0.0000       2.101529        57.1855 
 561   0.0000       2.105645        57.2975 
 562   0.0000       2.120554        57.7032 
 563   0.0000       2.124665        57.8151 
 564   0.0000       2.128306        57.9141 
 565   0.0000       2.131775        58.0085 
 566   0.0000       2.144356        58.3509 
 567   0.0000       2.146409        58.4068 
 568   0.0000       2.152504        58.5726 
 569   0.0000       2.155027        58.6413 
 570   0.0000       2.155931        58.6659 
 571   0.0000       2.157925        58.7201 
 572   0.0000       2.161197        58.8092 
 573   0.0000       2.161834        58.8265 
 574   0.0000       2.163551        58.8732 
 575   0.0000       2.167329        58.9760 
 576   0.0000       2.179477        59.3066 
 577   0.0000       2.179748        59.3139 
 578   0.0000       2.201717        59.9118 
 579   0.0000       2.202429        59.9311 
 580   0.0000       2.218670        60.3731 
 581   0.0000       2.224038        60.5192 
 582   0.0000       2.238899        60.9235 
 583   0.0000       2.250757        61.2462 
 584   0.0000       2.253772        61.3283 
 585   0.0000       2.256791        61.4104 
 586   0.0000       2.264881        61.6305 
 587   0.0000       2.276623        61.9501 
 588   0.0000       2.280583        62.0578 
 589   0.0000       2.292835        62.3912 
 590   0.0000       2.298810        62.5538 
 591   0.0000       2.304504        62.7087 
 592   0.0000       2.313657        62.9578 
 593   0.0000       2.327605        63.3373 
 594   0.0000       2.362177        64.2781 
 595   0.0000       2.401982        65.3612 
 596   0.0000       2.411575        65.6223 
 597   0.0000       2.419078        65.8265 
 598   0.0000       2.421066        65.8805 
 599   0.0000       2.423386        65.9437 
 600   0.0000       2.427905        66.0666 
 601   0.0000       2.432848        66.2012 
 602   0.0000       2.434722        66.2522 
 603   0.0000       2.444243        66.5112 
 604   0.0000       2.453494        66.7630 
 605   0.0000       2.456301        66.8393 
 606   0.0000       2.463781        67.0429 
 607   0.0000       2.472400        67.2774 
 608   0.0000       2.481836        67.5342 
 609   0.0000       2.485827        67.6428 
 610   0.0000       2.491917        67.8085 
 611   0.0000       2.500617        68.0452 
 612   0.0000       2.501680        68.0742 
 613   0.0000       2.503519        68.1242 
 614   0.0000       2.516913        68.4887 
 615   0.0000       2.527619        68.7800 
 616   0.0000       2.532062        68.9009 
 617   0.0000       2.557494        69.5929 
 618   0.0000       2.564946        69.7957 
 619   0.0000       2.568821        69.9012 
 620   0.0000       2.573957        70.0409 
 621   0.0000       2.577779        70.1449 
 622   0.0000       2.596186        70.6458 
 623   0.0000       2.610241        71.0283 
 624   0.0000       2.618503        71.2531 
 625   0.0000       2.619502        71.2803 
 626   0.0000       2.619597        71.2829 
 627   0.0000       2.643303        71.9279 
 628   0.0000       2.651698        72.1564 
 629   0.0000       2.654964        72.2452 
 630   0.0000       2.658421        72.3393 
 631   0.0000       2.664654        72.5089 
 632   0.0000       2.684473        73.0482 
 633   0.0000       2.686575        73.1054 
 634   0.0000       2.690286        73.2064 
 635   0.0000       2.691917        73.2508 
 636   0.0000       2.692242        73.2596 
 637   0.0000       2.693880        73.3042 
 638   0.0000       2.697642        73.4066 
 639   0.0000       2.698908        73.4410 
 640   0.0000       2.706418        73.6454 
 641   0.0000       2.709094        73.7182 
 642   0.0000       2.714790        73.8732 
 643   0.0000       2.735437        74.4350 
 644   0.0000       2.738166        74.5093 
 645   0.0000       2.761452        75.1429 
 646   0.0000       2.767691        75.3127 
 647   0.0000       2.774622        75.5013 
 648   0.0000       2.779832        75.6431 
 649   0.0000       2.794937        76.0541 
 650   0.0000       2.799889        76.1889 
 651   0.0000       2.804986        76.3276 
 652   0.0000       2.815330        76.6090 
 653   0.0000       2.824866        76.8685 
 654   0.0000       2.841367        77.3175 
 655   0.0000       2.888569        78.6020 
 656   0.0000       2.894376        78.7600 
 657   0.0000       2.894418        78.7611 
 658   0.0000       2.895041        78.7781 
 659   0.0000       2.910456        79.1975 
 660   0.0000       2.912642        79.2570 
 661   0.0000       2.914602        79.3104 
 662   0.0000       2.915933        79.3466 
 663   0.0000       2.937948        79.9456 
 664   0.0000       2.950641        80.2910 
 665   0.0000       2.978784        81.0568 
 666   0.0000       2.982950        81.1702 
 667   0.0000       2.989005        81.3350 
 668   0.0000       3.019193        82.1564 
 669   0.0000       3.055932        83.1561 
 670   0.0000       3.101252        84.3894 
 671   0.0000       3.167707        86.1977 
 672   0.0000       3.172697        86.3335 
 673   0.0000       3.176600        86.4397 
 674   0.0000       3.188937        86.7754 
 675   0.0000       3.283832        89.3576 
 676   0.0000       3.285063        89.3911 
 677   0.0000       3.287399        89.4547 
 678   0.0000       3.314555        90.1936 
 679   0.0000       3.450653        93.8971 
 680   0.0000       3.480454        94.7080 
 681   0.0000       3.482157        94.7543 
 682   0.0000       3.483927        94.8025 

                    ********************************
                    * MULLIKEN POPULATION ANALYSIS *
                    ********************************

-----------------------
MULLIKEN ATOMIC CHARGES
-----------------------
   0 C :   -0.166721
   1 O :   -0.333883
   2 C :    0.365643
   3 C :   -0.165024
   4 C :   -0.179708
   5 C :   -0.220723
   6 C :   -0.182284
   7 C :   -0.073787
   8 B :   -0.581657
   9 C :   -0.076061
  10 C :   -0.155742
  11 C :   -0.171504
  12 C :    0.368880
  13 O :   -0.337008
  14 C :   -0.164471
  15 C :   -0.222172
  16 C :   -0.190234
  17 C :   -0.034955
  18 C :   -0.206742
  19 C :   -0.192610
  20 C :    0.369427
  21 O :   -0.337646
  22 C :   -0.165926
  23 C :   -0.210921
  24 C :   -0.167526
  25 C :    0.375770
  26 N :   -0.275603
  27 C :   -0.133031
  28 C :    0.005374
  29 O :   -0.458652
  30 C :    0.018879
  31 C :   -0.148460
  32 C :   -0.217258
  33 C :    0.085004
  34 N :   -0.129273
  35 C :    0.115550
  36 C :   -0.232434
  37 H :    0.149761
  38 H :    0.153307
  39 H :    0.149276
  40 H :    0.116607
  41 H :    0.129837
  42 H :    0.109156
  43 H :    0.112932
  44 H :    0.136217
  45 H :    0.116279
  46 H :    0.152608
  47 H :    0.148333
  48 H :    0.149254
  49 H :    0.109001
  50 H :    0.116055
  51 H :    0.120828
  52 H :    0.116588
  53 H :    0.153385
  54 H :    0.148607
  55 H :    0.149548
  56 H :    0.109512
  57 H :    0.137067
  58 H :    0.168649
  59 H :    0.148221
  60 H :    0.142887
  61 H :    0.124526
  62 H :    0.123690
  63 H :    0.141791
  64 H :    0.148510
  65 H :    0.168133
  66 H :    0.104538
  67 H :    0.145416
  68 H :    0.115864
  69 H :    0.111103
Sum of atomic charges:   -0.0000000

--------------------------------
MULLIKEN REDUCED ORBITAL CHARGES
--------------------------------
  0 C s       :     3.071152  s :     3.071152
      pz      :     0.818857  p :     3.043485
      px      :     1.071587
      py      :     1.153042
      dz2     :     0.016474  d :     0.052084
      dxz     :     0.014969
      dyz     :     0.007837
      dx2y2   :     0.005914
      dxy     :     0.006890
  1 O s       :     3.732534  s :     3.732534
      pz      :     1.414139  p :     4.586902
      px      :     1.675232
      py      :     1.497530
      dz2     :     0.003522  d :     0.014447
      dxz     :     0.002291
      dyz     :     0.003251
      dx2y2   :     0.002876
      dxy     :     0.002507
  2 C s       :     2.897138  s :     2.897138
      pz      :     0.923878  p :     2.660885
      px      :     0.878135
      py      :     0.858872
      dz2     :     0.015460  d :     0.076333
      dxz     :     0.008708
      dyz     :     0.019945
      dx2y2   :     0.015765
      dxy     :     0.016456
  3 C s       :     3.237199  s :     3.237199
      pz      :     1.002800  p :     2.892692
      px      :     1.041739
      py      :     0.848153
      dz2     :     0.008733  d :     0.035133
      dxz     :     0.005749
      dyz     :     0.009008
      dx2y2   :     0.006643
      dxy     :     0.005001
  4 C s       :     3.242875  s :     3.242875
      pz      :     0.977888  p :     2.895711
      px      :     0.962454
      py      :     0.955369
      dz2     :     0.008654  d :     0.041123
      dxz     :     0.004153
      dyz     :     0.010728
      dx2y2   :     0.008253
      dxy     :     0.009335
  5 C s       :     3.246211  s :     3.246211
      pz      :     0.902405  p :     2.939675
      px      :     1.039448
      py      :     0.997821
      dz2     :     0.006784  d :     0.034837
      dxz     :     0.004210
      dyz     :     0.009949
      dx2y2   :     0.007296
      dxy     :     0.006599
  6 C s       :     3.224252  s :     3.224252
      pz      :     0.990439  p :     2.916772
      px      :     0.957719
      py      :     0.968613
      dz2     :     0.009432  d :     0.041260
      dxz     :     0.006692
      dyz     :     0.012331
      dx2y2   :     0.006999
      dxy     :     0.005805
  7 C s       :     3.071035  s :     3.071035
      pz      :     0.977105  p :     2.963805
      px      :     1.061097
      py      :     0.925603
      dz2     :     0.009747  d :     0.038948
      dxz     :     0.006415
      dyz     :     0.010622
      dx2y2   :     0.006551
      dxy     :     0.005613
  8 B s       :     3.044140  s :     3.044140
      pz      :     0.903162  p :     2.421752
      px      :     0.656667
      py      :     0.861923
      dz2     :     0.026207  d :     0.115765
      dxz     :     0.016467
      dyz     :     0.022484
      dx2y2   :     0.032390
      dxy     :     0.018217
  9 C s       :     3.071176  s :     3.071176
      pz      :     0.950734  p :     2.965943
      px      :     1.045597
      py      :     0.969612
      dz2     :     0.009685  d :     0.038942
      dxz     :     0.007528
      dyz     :     0.009351
      dx2y2   :     0.006015
      dxy     :     0.006362
 10 C s       :     3.241332  s :     3.241332
      pz      :     0.949691  p :     2.873430
      px      :     0.979903
      py      :     0.943836
      dz2     :     0.009094  d :     0.040979
      dxz     :     0.008219
      dyz     :     0.010871
      dx2y2   :     0.005717
      dxy     :     0.007078
 11 C s       :     3.243206  s :     3.243206
      pz      :     0.892841  p :     2.893049
      px      :     1.029210
      py      :     0.970999
      dz2     :     0.006859  d :     0.035249
      dxz     :     0.005562
      dyz     :     0.008820
      dx2y2   :     0.006720
      dxy     :     0.007287
 12 C s       :     2.896262  s :     2.896262
      pz      :     0.912349  p :     2.658568
      px      :     0.900409
      py      :     0.845809
      dz2     :     0.015520  d :     0.076290
      dxz     :     0.012110
      dyz     :     0.019808
      dx2y2   :     0.014738
      dxy     :     0.014114
 13 O s       :     3.733354  s :     3.733354
      pz      :     1.639126  p :     4.589223
      px      :     1.584262
      py      :     1.365834
      dz2     :     0.002007  d :     0.014431
      dxz     :     0.002535
      dyz     :     0.004101
      dx2y2   :     0.003220
      dxy     :     0.002568
 14 C s       :     3.070693  s :     3.070693
      pz      :     1.076865  p :     3.041711
      px      :     0.969293
      py      :     0.995553
      dz2     :     0.007884  d :     0.052067
      dxz     :     0.008213
      dyz     :     0.013102
      dx2y2   :     0.011101
      dxy     :     0.011767
 15 C s       :     3.244943  s :     3.244943
      pz      :     0.989330  p :     2.942327
      px      :     0.989807
      py      :     0.963191
      dz2     :     0.008655  d :     0.034902
      dxz     :     0.006456
      dyz     :     0.008645
      dx2y2   :     0.004855
      dxy     :     0.006291
 16 C s       :     3.224178  s :     3.224178
      pz      :     0.969545  p :     2.924726
      px      :     0.973638
      py      :     0.981542
      dz2     :     0.008722  d :     0.041331
      dxz     :     0.006268
      dyz     :     0.008718
[...]
      pz      :     1.075793  p :     3.119097
      px      :     1.078734
      py      :     0.964571
      dz2     :     0.027237  d :     0.102994
      dxz     :     0.037806
      dyz     :     0.013370
      dx2y2   :     0.013522
      dxy     :     0.011059
 25 C s       :     2.805766  s :     2.805766
      pz      :     0.864347  p :     2.864963
      px      :     0.953251
      py      :     1.047365
      dz2     :     0.013499  d :     0.158602
      dxz     :     0.035953
      dyz     :     0.014485
      dx2y2   :     0.049087
      dxy     :     0.045578
 26 N s       :     3.069465  s :     3.069465
      pz      :     1.542042  p :     3.909254
      px      :     1.182920
      py      :     1.184292
      dz2     :     0.005939  d :     0.065098
      dxz     :     0.007755
      dyz     :     0.008888
      dx2y2   :     0.023652
      dxy     :     0.018865
 27 C s       :     2.847634  s :     2.847634
      pz      :     1.133901  p :     3.123739
      px      :     1.040609
      py      :     0.949229
      dz2     :     0.022242  d :     0.110448
      dxz     :     0.012877
      dyz     :     0.025077
      dx2y2   :     0.025035
      dxy     :     0.025217
 28 C s       :     2.848898  s :     2.848898
      pz      :     1.056842  p :     3.027070
      px      :     0.999561
      py      :     0.970668
      dz2     :     0.038377  d :     0.140425
      dxz     :     0.018299
      dyz     :     0.021095
      dx2y2   :     0.031613
      dxy     :     0.031042
 29 O s       :     3.470019  s :     3.470019
      pz      :     1.755033  p :     4.739264
      px      :     1.697764
      py      :     1.286466
      dz2     :     0.003693  d :     0.029033
      dxz     :     0.002898
      dyz     :     0.007490
      dx2y2   :     0.006142
      dxy     :     0.008810
 30 C s       :     2.848226  s :     2.848226
      pz      :     1.115091  p :     3.026017
      px      :     1.017867
      py      :     0.893060
      dz2     :     0.030264  d :     0.140412
      dxz     :     0.013518
      dyz     :     0.026394
      dx2y2   :     0.034504
      dxy     :     0.035731
 31 C s       :     2.848913  s :     2.848913
      pz      :     1.102443  p :     3.128397
      px      :     1.026325
      py      :     0.999629
      dz2     :     0.030878  d :     0.110440
      dxz     :     0.015733
      dyz     :     0.016996
      dx2y2   :     0.022850
      dxy     :     0.023984
 32 C s       :     2.868099  s :     2.868099
      pz      :     1.058429  p :     3.219358
      px      :     1.076864
      py      :     1.084065
      dz2     :     0.007678  d :     0.085992
      dxz     :     0.012425
      dyz     :     0.007097
      dx2y2   :     0.029753
      dxy     :     0.029039
 33 C s       :     2.835369  s :     2.835369
      pz      :     0.888790  p :     2.932355
      px      :     1.055223
      py      :     0.988342
      dz2     :     0.010883  d :     0.132322
      dxz     :     0.020507
      dyz     :     0.015340
      dx2y2   :     0.038359
      dxy     :     0.047233
 34 N s       :     3.069820  s :     3.069820
      pz      :     1.341078  p :     3.825327
      px      :     1.272995
      py      :     1.211254
      dz2     :     0.005971  d :     0.065213
      dxz     :     0.006364
      dyz     :     0.011052
      dx2y2   :     0.019276
      dxy     :     0.022549
 35 C s       :     2.834035  s :     2.834035
      pz      :     0.872965  p :     2.919980
      px      :     1.044862
      py      :     1.002152
      dz2     :     0.012403  d :     0.133078
      dxz     :     0.023271
      dyz     :     0.013997
      dx2y2   :     0.037128
      dxy     :     0.046279
 36 C s       :     2.868504  s :     2.868504
      pz      :     1.072650  p :     3.230875
      px      :     1.077319
      py      :     1.080907
      dz2     :     0.007716  d :     0.085455
      dxz     :     0.011376
      dyz     :     0.007674
      dx2y2   :     0.029462
      dxy     :     0.029228
 37 H s       :     0.841139  s :     0.841139
      pz      :     0.032814  p :     0.079101
      px      :     0.027970
      py      :     0.018317
 38 H s       :     0.836301  s :     0.836301
      pz      :     0.010408  p :     0.078405
      px      :     0.015770
      py      :     0.052227
 39 H s       :     0.841209  s :     0.841209
      pz      :     0.009159  p :     0.079100
      px      :     0.043168
      py      :     0.026772
 40 H s       :     0.809334  s :     0.809334
      pz      :     0.022651  p :     0.083496
      px      :     0.014577
      py      :     0.046268
 41 H s       :     0.815782  s :     0.815782
      pz      :     0.050714  p :     0.081195
      px      :     0.020048
      py      :     0.010434
 42 H s       :     0.811071  s :     0.811071
      pz      :     0.050126  p :     0.084897
      px      :     0.023667
      py      :     0.011105
 43 H s       :     0.819967  s :     0.819967
      pz      :     0.022654  p :     0.081998
      px      :     0.013626
      py      :     0.045717
 44 H s       :     0.814865  s :     0.814865
      pz      :     0.022824  p :     0.080528
      px      :     0.031727
      py      :     0.025977
 45 H s       :     0.809218  s :     0.809218
      pz      :     0.050820  p :     0.083463
      px      :     0.018119
      py      :     0.014523
 46 H s       :     0.836423  s :     0.836423
      pz      :     0.029833  p :     0.078430
      px      :     0.012691
      py      :     0.035907
 47 H s       :     0.841601  s :     0.841601
      pz      :     0.044789  p :     0.079071
      px      :     0.015594
      py      :     0.018688
 48 H s       :     0.841184  s :     0.841184
      pz      :     0.014752  p :     0.079093
      px      :     0.044832
      py      :     0.019509
 49 H s       :     0.810935  s :     0.810935
      pz      :     0.024147  p :     0.084919
      px      :     0.033335
      py      :     0.027437
 50 H s       :     0.819624  s :     0.819624
      pz      :     0.051259  p :     0.082034
      px      :     0.017051
      py      :     0.013725
 51 H s       :     0.819192  s :     0.819192
      pz      :     0.013365  p :     0.081597
      px      :     0.053526
      py      :     0.014706
 52 H s       :     0.809303  s :     0.809303
      pz      :     0.032195  p :     0.083625
      px      :     0.035689
      py      :     0.015741
 53 H s       :     0.836260  s :     0.836260
      pz      :     0.055467  p :     0.078403
      px      :     0.008567
      py      :     0.014369
 54 H s       :     0.841422  s :     0.841422
      pz      :     0.017381  p :     0.079080
      px      :     0.015400
      py      :     0.046298
 55 H s       :     0.841287  s :     0.841287
      pz      :     0.015926  p :     0.079064
      px      :     0.027575
      py      :     0.035563
 56 H s       :     0.810742  s :     0.810742
      pz      :     0.013847  p :     0.084799
      px      :     0.053396
      py      :     0.017555
 57 H s       :     0.813809  s :     0.813809
      pz      :     0.030722  p :     0.080770
      px      :     0.035836
      py      :     0.014212
 58 H s       :     0.819647  s :     0.819647
      pz      :     0.029011  p :     0.081261
      px      :     0.021604
      py      :     0.030646
 59 H s       :     0.830898  s :     0.830898
      pz      :     0.051381  p :     0.079308
      px      :     0.012922
      py      :     0.015005
 60 H s       :     0.834973  s :     0.834973
      pz      :     0.014458  p :     0.076483
      px      :     0.019447
      py      :     0.042579
 61 H s       :     0.846796  s :     0.846796
      pz      :     0.054183  p :     0.076994
      px      :     0.011736
      py      :     0.011075
 62 H s       :     0.847172  s :     0.847172
      pz      :     0.053752  p :     0.076980
      px      :     0.012121
      py      :     0.011106
 63 H s       :     0.835071  s :     0.835071
      pz      :     0.023522  p :     0.076450
      px      :     0.022962
      py      :     0.029966
 64 H s       :     0.831393  s :     0.831393
      pz      :     0.055417  p :     0.079296
      px      :     0.012552
      py      :     0.011327
 65 H s       :     0.818325  s :     0.818325
      pz      :     0.018746  p :     0.080787
      px      :     0.018427
      py      :     0.043615
 66 H s       :     0.809787  s :     0.809787
      pz      :     0.018353  p :     0.086004
      px      :     0.018485
      py      :     0.049166
 67 H s       :     0.822434  s :     0.822434
      pz      :     0.016003  p :     0.078481
      px      :     0.025318
      py      :     0.037159
 68 H s       :     0.827121  s :     0.827121
      pz      :     0.013588  p :     0.079340
      px      :     0.022827
      py      :     0.042925
 69 H s       :     0.809994  s :     0.809994
      pz      :     0.021610  p :     0.086476
      px      :     0.020933
      py      :     0.043933


                      *****************************
                      * MAYER POPULATION ANALYSIS *
                      *****************************

  NA   - Mulliken gross atomic population
  ZA   - Total nuclear charge
  QA   - Mulliken gross atomic charge
  VA   - Mayer's total valence
  BVA  - Mayer's bonded valence
  FA   - Mayer's free valence

  ATOM       NA         ZA         QA         VA         BVA        FA
  0 C      6.1667     6.0000    -0.1667     3.8827     3.8827    -0.0000
  1 O      8.3339     8.0000    -0.3339     2.2172     2.2172    -0.0000
  2 C      5.6344     6.0000     0.3656     3.9609     3.9609     0.0000
  3 C      6.1650     6.0000    -0.1650     3.7976     3.7976     0.0000
  4 C      6.1797     6.0000    -0.1797     3.9234     3.9234    -0.0000
  5 C      6.2207     6.0000    -0.2207     3.8264     3.8264     0.0000
  6 C      6.1823     6.0000    -0.1823     3.9612     3.9612    -0.0000
  7 C      6.0738     6.0000    -0.0738     3.7140     3.7140    -0.0000
  8 B      5.5817     5.0000    -0.5817     4.3289     4.3289     0.0000
  9 C      6.0761     6.0000    -0.0761     3.6993     3.6993    -0.0000
 10 C      6.1557     6.0000    -0.1557     3.9104     3.9104    -0.0000
 11 C      6.1715     6.0000    -0.1715     3.7885     3.7885    -0.0000
 12 C      5.6311     6.0000     0.3689     3.9534     3.9534    -0.0000
 13 O      8.3370     8.0000    -0.3370     2.2126     2.2126    -0.0000
 14 C      6.1645     6.0000    -0.1645     3.8830     3.8830    -0.0000
 15 C      6.2222     6.0000    -0.2222     3.8246     3.8246    -0.0000
 16 C      6.1902     6.0000    -0.1902     3.9759     3.9759    -0.0000
 17 C      6.0350     6.0000    -0.0350     3.6933     3.6933     0.0000
 18 C      6.2067     6.0000    -0.2067     3.9441     3.9441    -0.0000
 19 C      6.1926     6.0000    -0.1926     3.8453     3.8453     0.0000
 20 C      5.6306     6.0000     0.3694     3.9546     3.9546     0.0000
 21 O      8.3376     8.0000    -0.3376     2.2114     2.2114     0.0000
 22 C      6.1659     6.0000    -0.1659     3.8829     3.8829     0.0000
 23 C      6.2109     6.0000    -0.2109     3.7881     3.7881     0.0000
 24 C      6.1675     6.0000    -0.1675     3.9404     3.9404     0.0000
 25 C      5.6242     6.0000     0.3758     3.9298     3.9298    -0.0000
 26 N      7.2756     7.0000    -0.2756     3.3850     3.3850    -0.0000
 27 C      6.1330     6.0000    -0.1330     4.0538     4.0538     0.0000
 28 C      5.9946     6.0000     0.0054     4.0951     4.0951    -0.0000
 29 O      8.4587     8.0000    -0.4587     2.0501     2.0501     0.0000
 30 C      5.9811     6.0000     0.0189     4.0864     4.0864     0.0000
 31 C      6.1485     6.0000    -0.1485     4.0621     4.0621     0.0000
 32 C      6.2173     6.0000    -0.2173     3.8829     3.8829     0.0000
 33 C      5.9150     6.0000     0.0850     4.0563     4.0563    -0.0000
 34 N      7.1293     7.0000    -0.1293     3.5020     3.5020     0.0000
 35 C      5.8844     6.0000     0.1156     4.0199     4.0199     0.0000
 36 C      6.2324     6.0000    -0.2324     3.8980     3.8980     0.0000
 37 H      0.8502     1.0000     0.1498     0.9754     0.9754     0.0000
 38 H      0.8467     1.0000     0.1533     0.9777     0.9777     0.0000
 39 H      0.8507     1.0000     0.1493     0.9755     0.9755     0.0000
 40 H      0.8834     1.0000     0.1166     0.9863     0.9863     0.0000
 41 H      0.8702     1.0000     0.1298     0.9730     0.9730    -0.0000
 42 H      0.8908     1.0000     0.1092     0.9927     0.9927     0.0000
 43 H      0.8871     1.0000     0.1129     0.9836     0.9836    -0.0000
 44 H      0.8638     1.0000     0.1362     0.9733     0.9733    -0.0000
 45 H      0.8837     1.0000     0.1163     0.9863     0.9863    -0.0000
 46 H      0.8474     1.0000     0.1526     0.9777     0.9777     0.0000
 47 H      0.8517     1.0000     0.1483     0.9758     0.9758    -0.0000
 48 H      0.8507     1.0000     0.1493     0.9760     0.9760     0.0000
 49 H      0.8910     1.0000     0.1090     0.9929     0.9929    -0.0000
 50 H      0.8839     1.0000     0.1161     0.9809     0.9809     0.0000
 51 H      0.8792     1.0000     0.1208     0.9802     0.9802    -0.0000
 52 H      0.8834     1.0000     0.1166     0.9862     0.9862     0.0000
 53 H      0.8466     1.0000     0.1534     0.9774     0.9774     0.0000
 54 H      0.8514     1.0000     0.1486     0.9760     0.9760     0.0000
 55 H      0.8505     1.0000     0.1495     0.9756     0.9756     0.0000
 56 H      0.8905     1.0000     0.1095     0.9935     0.9935     0.0000
 57 H      0.8629     1.0000     0.1371     0.9721     0.9721     0.0000
 58 H      0.8314     1.0000     0.1686     0.9665     0.9665     0.0000
 59 H      0.8518     1.0000     0.1482     0.9767     0.9767     0.0000
 60 H      0.8571     1.0000     0.1429     0.9725     0.9725     0.0000
 61 H      0.8755     1.0000     0.1245     0.9820     0.9820     0.0000
 62 H      0.8763     1.0000     0.1237     0.9823     0.9823     0.0000
 63 H      0.8582     1.0000     0.1418     0.9734     0.9734     0.0000
 64 H      0.8515     1.0000     0.1485     0.9750     0.9750    -0.0000
 65 H      0.8319     1.0000     0.1681     0.9641     0.9641    -0.0000
 66 H      0.8955     1.0000     0.1045     0.9931     0.9931     0.0000
 67 H      0.8546     1.0000     0.1454     0.9694     0.9694     0.0000
 68 H      0.8841     1.0000     0.1159     0.9814     0.9814     0.0000
 69 H      0.8889     1.0000     0.1111     0.9908     0.9908     0.0000

  Mayer bond orders larger than 0.100000
B(  0-C ,  1-O ) :   0.9496 B(  0-C , 37-H ) :   0.9503 B(  0-C , 38-H ) :   0.9530 
B(  0-C , 39-H ) :   0.9502 B(  1-O ,  2-C ) :   1.1364 B(  2-C ,  3-C ) :   1.3233 
B(  2-C ,  5-C ) :   1.3025 B(  3-C ,  4-C ) :   1.4083 B(  3-C , 40-H ) :   0.9730 
B(  4-C ,  7-C ) :   1.3089 B(  4-C , 41-H ) :   0.9556 B(  5-C ,  6-C ) :   1.3885 
B(  5-C , 42-H ) :   0.9714 B(  6-C ,  7-C ) :   1.3439 B(  6-C , 43-H ) :   0.9621 
B(  7-C ,  8-B ) :   0.9734 B(  8-B ,  9-C ) :   0.9860 B(  8-B , 17-C ) :   0.9955 
B(  8-B , 34-N ) :   0.8045 B(  9-C , 10-C ) :   1.2944 B(  9-C , 16-C ) :   1.3516 
B( 10-C , 11-C ) :   1.4018 B( 10-C , 44-H ) :   0.9467 B( 11-C , 12-C ) :   1.3243 
B( 11-C , 45-H ) :   0.9726 B( 12-C , 13-O ) :   1.1320 B( 12-C , 15-C ) :   1.3027 
B( 13-O , 14-C ) :   0.9496 B( 14-C , 46-H ) :   0.9531 B( 14-C , 47-H ) :   0.9505 
B( 14-C , 48-H ) :   0.9506 B( 15-C , 16-C ) :   1.3856 B( 15-C , 49-H ) :   0.9724 
B( 16-C , 50-H ) :   0.9597 B( 17-C , 18-C ) :   1.2874 B( 17-C , 24-C ) :   1.3533 
B( 18-C , 19-C ) :   1.4217 B( 18-C , 51-H ) :   0.9628 B( 19-C , 20-C ) :   1.3367 
B( 19-C , 52-H ) :   0.9716 B( 20-C , 21-O ) :   1.1315 B( 20-C , 23-C ) :   1.2957 
B( 21-O , 22-C ) :   0.9501 B( 22-C , 53-H ) :   0.9528 B( 22-C , 54-H ) :   0.9504 
B( 22-C , 55-H ) :   0.9503 B( 23-C , 24-C ) :   1.3728 B( 23-C , 56-H ) :   0.9715 
B( 24-C , 57-H ) :   0.9468 B( 25-C , 26-N ) :   1.2440 B( 25-C , 32-C ) :   1.2489 
B( 25-C , 36-C ) :   1.2616 B( 26-N , 27-C ) :   0.9771 B( 26-N , 31-C ) :   0.9829 
B( 27-C , 28-C ) :   1.1399 B( 27-C , 58-H ) :   0.9025 B( 27-C , 59-H ) :   0.9065 
B( 28-C , 29-O ) :   0.9786 B( 28-C , 60-H ) :   0.9232 B( 28-C , 61-H ) :   0.9124 
B( 29-O , 30-C ) :   0.9795 B( 30-C , 31-C ) :   1.1326 B( 30-C , 62-H ) :   0.9123 
B( 30-C , 63-H ) :   0.9221 B( 31-C , 64-H ) :   0.9079 B( 31-C , 65-H ) :   0.9028 
B( 32-C , 33-C ) :   1.5356 B( 32-C , 66-H ) :   0.9492 B( 33-C , 34-N ) :   1.2855 
B( 33-C , 67-H ) :   0.9095 B( 34-N , 35-C ) :   1.2991 B( 35-C , 36-C ) :   1.5195 
B( 35-C , 68-H ) :   0.9248 B( 36-C , 69-H ) :   0.9466 

-------
TIMINGS
-------

Total SCF time: 0 days 0 hours 0 min 8 sec 

Total time                  ....       8.330 sec
Sum of individual times     ....       7.830 sec  ( 94.0%)

Fock matrix formation       ....       0.000 sec  (  0.0%)
Diagonalization             ....       0.000 sec  (  0.0%)
Density matrix formation    ....       0.000 sec  (  0.0%)
Population analysis         ....       0.056 sec  (  0.7%)
Initial guess               ....       4.620 sec  ( 55.5%)
Orbital Transformation      ....       0.000 sec  (  0.0%)
Orbital Orthonormalization  ....       0.000 sec  (  0.0%)
DIIS solution               ....       0.000 sec  (  0.0%)
SOSCF solution              ....       0.000 sec  (  0.0%)

Maximum memory used throughout the entire SCF-calculation: 163.4 MB

-------------------------   --------------------
FINAL SINGLE POINT ENERGY         0.000000000000
-------------------------   --------------------


                            ***************************************
                            *     ORCA property calculations      *
                            ***************************************

                                    ---------------------
                                    Active property flags
                                    ---------------------
   (+) Dipole Moment


------------------------------------------------------------------------------
                       ORCA ELECTRIC PROPERTIES CALCULATION
------------------------------------------------------------------------------

Dipole Moment Calculation                       ... on
Quadrupole Moment Calculation                   ... off
Polarizability Calculation                      ... off
GBWName                                         ... START_a001_b001.gbw
Electron density                                ... START_a001_b001.scfp
The origin for moment calculation is the CENTER OF MASS  = ( 0.028316, -0.035468 -0.027495)

-------------
DIPOLE MOMENT
-------------
                                X             Y             Z
Electronic contribution:      1.32902      -1.50209      -0.57472
Nuclear contribution   :     -3.64456       2.04779       1.08239
                        -----------------------------------------
Total Dipole Moment    :     -2.31555       0.54570       0.50767
                        -----------------------------------------
Magnitude (a.u.)       :      2.43255
Magnitude (Debye)      :      6.18304



--------------------
Rotational spectrum 
--------------------
 
Rotational constants in cm-1:     0.002956     0.001972     0.001928 
Rotational constants in MHz :    88.631990    59.128435    57.788787 

 Dipole components along the rotational axes: 
x,y,z [a.u.] :     2.405483     0.320699     0.167574 
x,y,z [Debye]:     6.114251     0.815152     0.425940 

 

Timings for individual modules:

Sum of individual times         ...        9.298 sec (=   0.155 min)
GTO integral calculation        ...        0.936 sec (=   0.016 min)  10.1 %
SCF iterations                  ...        8.362 sec (=   0.139 min)  89.9 %
                             ****ORCA TERMINATED NORMALLY****
TOTAL RUN TIME: 0 days 0 hours 0 minutes 9 seconds 610 msec
