
                                 *****************
                                 * O   R   C   A *
                                 *****************

                                            #,                                       
                                            ###                                      
                                            ####                                     
                                            #####                                    
                                            ######                                   
                                           ########,                                 
                                     ,,################,,,,,                         
                               ,,#################################,,                 
                          ,,##########################################,,             
                       ,#########################################, ''#####,          
                    ,#############################################,,   '####,        
                  ,##################################################,,,,####,       
                ,###########''''           ''''###############################       
              ,#####''   ,,,,##########,,,,          '''####'''          '####       
            ,##' ,,,,###########################,,,                        '##       
           ' ,,###''''                  '''############,,,                           
         ,,##''                                '''############,,,,        ,,,,,,###''
      ,#''                                            '''#######################'''  
     '                                                          ''''####''''         
             ,#######,   #######,   ,#######,      ##                                
            ,#'     '#,  ##    ##  ,#'     '#,    #''#        ######   ,####,        
            ##       ##  ##   ,#'  ##            #'  '#       #        #'  '#        
            ##       ##  #######   ##           ,######,      #####,   #    #        
            '#,     ,#'  ##    ##  '#,     ,#' ,#      #,         ##   #,  ,#        
             '#######'   ##     ##  '#######'  #'      '#     #####' # '####'        



                  #######################################################
                  #                        -***-                        #
                  #          Department of theory and spectroscopy      #
                  #    Directorship and core code : Frank Neese         #
                  #        Max Planck Institute fuer Kohlenforschung    #
                  #                Kaiser Wilhelm Platz 1               #
                  #                 D-45470 Muelheim/Ruhr               #
                  #                      Germany                        #
                  #                                                     #
                  #                  All rights reserved                #
                  #                        -***-                        #
                  #######################################################


                         Program Version 5.0.2 -  RELEASE  -


 With contributions from (in alphabetic order):
   Daniel Aravena         : Magnetic Suceptibility
   Michael Atanasov       : Ab Initio Ligand Field Theory (pilot matlab implementation)
   Alexander A. Auer      : GIAO ZORA, VPT2 properties, NMR spectrum
   Ute Becker             : Parallelization
   Giovanni Bistoni       : ED, misc. LED, open-shell LED, HFLD
   Martin Brehm           : Molecular dynamics
   Dmytro Bykov           : SCF Hessian
   Vijay G. Chilkuri      : MRCI spin determinant printing, contributions to CSF-ICE
   Dipayan Datta          : RHF DLPNO-CCSD density
   Achintya Kumar Dutta   : EOM-CC, STEOM-CC
   Dmitry Ganyushin       : Spin-Orbit,Spin-Spin,Magnetic field MRCI
   Miquel Garcia          : C-PCM and meta-GGA Hessian, CC/C-PCM, Gaussian charge scheme
   Yang Guo               : DLPNO-NEVPT2, F12-NEVPT2, CIM, IAO-localization
   Andreas Hansen         : Spin unrestricted coupled pair/coupled cluster methods
   Benjamin Helmich-Paris : MC-RPA, TRAH-SCF, COSX integrals
   Lee Huntington         : MR-EOM, pCC
   Robert Izsak           : Overlap fitted RIJCOSX, COSX-SCS-MP3, EOM
   Marcus Kettner         : VPT2
   Christian Kollmar      : KDIIS, OOCD, Brueckner-CCSD(T), CCSD density, CASPT2, CASPT2-K
   Simone Kossmann        : Meta GGA functionals, TD-DFT gradient, OOMP2, MP2 Hessian
   Martin Krupicka        : Initial AUTO-CI
   Lucas Lang             : DCDCAS
   Marvin Lechner         : AUTO-CI (C++ implementation), FIC-MRCC
   Dagmar Lenk            : GEPOL surface, SMD
   Dimitrios Liakos       : Extrapolation schemes; Compound Job, initial MDCI parallelization
   Dimitrios Manganas     : Further ROCIS development; embedding schemes
   Dimitrios Pantazis     : SARC Basis sets
   Anastasios Papadopoulos: AUTO-CI, single reference methods and gradients
   Taras Petrenko         : DFT Hessian,TD-DFT gradient, ASA, ECA, R-Raman, ABS, FL, XAS/XES, NRVS
   Peter Pinski           : DLPNO-MP2, DLPNO-MP2 Gradient
   Christoph Reimann      : Effective Core Potentials
   Marius Retegan         : Local ZFS, SOC
   Christoph Riplinger    : Optimizer, TS searches, QM/MM, DLPNO-CCSD(T), (RO)-DLPNO pert. Triples
   Tobias Risthaus        : Range-separated hybrids, TD-DFT gradient, RPA, STAB
   Michael Roemelt        : Original ROCIS implementation
   Masaaki Saitow         : Open-shell DLPNO-CCSD energy and density
   Barbara Sandhoefer     : DKH picture change effects
   Avijit Sen             : IP-ROCIS
   Kantharuban Sivalingam : CASSCF convergence, NEVPT2, FIC-MRCI
   Bernardo de Souza      : ESD, SOC TD-DFT
   Georgi Stoychev        : AutoAux, RI-MP2 NMR, DLPNO-MP2 response
   Willem Van den Heuvel  : Paramagnetic NMR
   Boris Wezisla          : Elementary symmetry handling
   Frank Wennmohs         : Technical directorship


 We gratefully acknowledge several colleagues who have allowed us to
 interface, adapt or use parts of their codes:
   Stefan Grimme, W. Hujo, H. Kruse, P. Pracht,  : VdW corrections, initial TS optimization,
                  C. Bannwarth, S. Ehlert          DFT functionals, gCP, sTDA/sTD-DF
   Ed Valeev, F. Pavosevic, A. Kumar             : LibInt (2-el integral package), F12 methods
   Garnet Chan, S. Sharma, J. Yang, R. Olivares  : DMRG
   Ulf Ekstrom                                   : XCFun DFT Library
   Mihaly Kallay                                 : mrcc  (arbitrary order and MRCC methods)
   Jiri Pittner, Ondrej Demel                    : Mk-CCSD
   Frank Weinhold                                : gennbo (NPA and NBO analysis)
   Christopher J. Cramer and Donald G. Truhlar   : smd solvation model
   Lars Goerigk                                  : TD-DFT with DH, B97 family of functionals
   V. Asgeirsson, H. Jonsson                     : NEB implementation
   FAccTs GmbH                                   : IRC, NEB, NEB-TS, DLPNO-Multilevel, CI-OPT
                                                   MM, QMMM, 2- and 3-layer-ONIOM, Crystal-QMMM,
                                                   LR-CPCM, SF, NACMEs, symmetry and pop. for TD-DFT,
                                                   nearIR, NL-DFT gradient (VV10), updates on ESD,
                                                   ML-optimized integration grids
   S Lehtola, MJT Oliveira, MAL Marques          : LibXC Library
   Liviu Ungur et al                             : ANISO software


 Your calculation uses the libint2 library for the computation of 2-el integrals
 For citations please refer to: http://libint.valeyev.net

 Your ORCA version has been built with support for libXC version: 5.1.0
 For citations please refer to: https://tddft.org/programs/libxc/

 This ORCA versions uses:
   CBLAS   interface :  Fast vector & matrix operations
   LAPACKE interface :  Fast linear algebra routines
   SCALAPACK package :  Parallel linear algebra routines
   Shared memory     :  Shared parallel matrices
   BLAS/LAPACK       :  OpenBLAS 0.3.15  USE64BITINT DYNAMIC_ARCH NO_AFFINITY SkylakeX SINGLE_THREADED
        Core in use  :  SkylakeX
   Copyright (c) 2011-2014, The OpenBLAS Project


================================================================================

cite the ECPs for Sn [Def2-ECP] as follows:
Ce-Yb(ecp-28): M. Dolg, H. Stoll, H.Preuss, J. Chem. Phys., 1989, 90, 1730-1734.
Y-Cd(ecp-28), Hf-Hg(ecp-46): D. Andrae,U. Haeussermann, M. Dolg, H. Stoll, H. Preuss, Theor. Chim. Acta, 1990, 77, 123-141.
In-Sb(ecp-28), Tl-Bi(ecp-46): B. Metz, H. Stoll, M. Dolg, J. Chem. Phys., 2000, 113, 2563-2569.
Te-Xe(ecp-28), Po-Rn(ecp-46): K. A. Peterson, D. Figgen, E. Goll, H. Stoll, M. Dolg, J. Chem. Phys., 2003, 119, 11113-11123.
Rb(ecp-28), Cs(ecp-46): T. Leininger, A. Nicklass, W. Kuechle, H. Stoll, M. Dolg, A. Bergner, Chem. Phys. Lett., 1996, 255, 274-280.
Sr(ecp-28), Ba(ecp-46): M. Kaupp, P. V. Schleyer, H. Stoll and H. Preuss, J. Chem. Phys., 1991, 94, 1360-1366.
La(ecp-46): M. Dolg, H. Stoll, A. Savin, H. Preuss, Theor. Chim. Acta, 1989, 75, 173-194.
Lu(ecp-28): X. Cao, M. Dolg, J. Chem. Phys., 2001, 115, 7348-7355.

ECP parameters for Sn [Def2-ECP] have been obtained from:
TURBOMOLE (7.0.2)

----- Orbital basis set information -----
Your calculation utilizes the basis: def2-SVP
   F. Weigend and R. Ahlrichs, Phys. Chem. Chem. Phys. 7, 3297 (2005).

================================================================================
                                        WARNINGS
                       Please study these warnings very carefully!
================================================================================


INFO   : the flag for use of the SHARK integral package has been found!

================================================================================
                                       INPUT FILE
================================================================================
NAME = START_a007_b027_2.inp
|  1> !HF  DEF2-SVP 
|  2> %maxcore 20
|  3> %pal nprocs = 1  end
|  4> %scf
|  5> MAXITER 0
|  6> end
|  7> %output XYZFILE 1 end
|  8> * xyz 0 1
|  9> Cl 3.402161 0.802854 3.987283
| 10> Sn 2.011377 -0.347434 2.442607
| 11> Cl 0.994691 1.766884 1.820271
| 12> Cl 3.090971 -2.425785 2.843061
| 13> Cl 0.402574 -1.455382 1.007873
| 14> C 4.665811 1.948446 0.97084
| 15> C 3.644298 1.091467 0.285139
| 16> N 3.07104 1.496585 -0.835288
| 17> C 3.20024 2.837287 -1.362511
| 18> C 2.029542 0.69577 -1.459782
| 19> O 3.346701 -0.030123 0.768307
| 20> C -0.069675 -2.89635 4.351944
| 21> C -0.364577 -1.461239 4.034301
| 22> N -1.602697 -1.072793 3.778866
| 23> C -1.875509 0.299691 3.38168
| 24> C -2.710791 -1.985929 3.605967
| 25> O 0.566615 -0.617058 4.031454
| 26> H 5.182533 1.353997 1.716939
| 27> H 4.167184 2.766779 1.493035
| 28> H 5.396943 2.367139 0.281189
| 29> H 3.415507 2.800098 -2.430002
| 30> H 2.264743 3.379653 -1.214598
| 31> H 3.991871 3.393072 -0.873315
| 32> H 2.059049 0.868448 -2.534357
| 33> H 1.051808 0.981296 -1.071459
| 34> H 2.179219 -0.359786 -1.263104
| 35> H -0.158987 -3.499447 3.447215
| 36> H 0.953855 -2.977807 4.702308
| 37> H -0.73826 -3.302738 5.109741
| 38> H -2.884502 0.557866 3.698558
| 39> H -1.171264 0.984849 3.839881
| 40> H -1.79709 0.401648 2.299284
| 41> H -3.574624 -1.631704 4.167851
| 42> H -2.470219 -2.986448 3.946321
| 43> H -2.981731 -2.041626 2.550148
| 44> *
| 45> 
| 46>                          ****END OF INPUT****
================================================================================

                       ****************************
                       * Single Point Calculation *
                       ****************************

---------------------------------
CARTESIAN COORDINATES (ANGSTROEM)
---------------------------------
  Cl     3.402161    0.802854    3.987283
  Sn     2.011377   -0.347434    2.442607
  Cl     0.994691    1.766884    1.820271
  Cl     3.090971   -2.425785    2.843061
  Cl     0.402574   -1.455382    1.007873
  C      4.665811    1.948446    0.970840
  C      3.644298    1.091467    0.285139
  N      3.071040    1.496585   -0.835288
  C      3.200240    2.837287   -1.362511
  C      2.029542    0.695770   -1.459782
  O      3.346701   -0.030123    0.768307
  C     -0.069675   -2.896350    4.351944
  C     -0.364577   -1.461239    4.034301
  N     -1.602697   -1.072793    3.778866
  C     -1.875509    0.299691    3.381680
  C     -2.710791   -1.985929    3.605967
  O      0.566615   -0.617058    4.031454
  H      5.182533    1.353997    1.716939
  H      4.167184    2.766779    1.493035
  H      5.396943    2.367139    0.281189
  H      3.415507    2.800098   -2.430002
  H      2.264743    3.379653   -1.214598
  H      3.991871    3.393072   -0.873315
  H      2.059049    0.868448   -2.534357
  H      1.051808    0.981296   -1.071459
  H      2.179219   -0.359786   -1.263104
  H     -0.158987   -3.499447    3.447215
  H      0.953855   -2.977807    4.702308
  H     -0.738260   -3.302738    5.109741
  H     -2.884502    0.557866    3.698558
  H     -1.171264    0.984849    3.839881
  H     -1.797090    0.401648    2.299284
  H     -3.574624   -1.631704    4.167851
  H     -2.470219   -2.986448    3.946321
  H     -2.981731   -2.041626    2.550148

----------------------------
CARTESIAN COORDINATES (A.U.)
----------------------------
  NO LB      ZA    FRAG     MASS         X           Y           Z
   0 Cl   17.0000    0    35.453    6.429153    1.517174    7.534873
   1 Sn   22.0000*   0   118.690    3.800952   -0.656555    4.615858
   2 Cl   17.0000    0    35.453    1.879694    3.338927    3.439814
   3 Cl   17.0000    0    35.453    5.841089   -4.584069    5.372607
   4 Cl   17.0000    0    35.453    0.760755   -2.750273    1.904604
   5 C     6.0000    0    12.011    8.817105    3.682029    1.834622
   6 C     6.0000    0    12.011    6.886725    2.062574    0.538835
   7 N     7.0000    0    14.007    5.803425    2.828136   -1.578466
   8 C     6.0000    0    12.011    6.047577    5.361695   -2.574773
   9 C     6.0000    0    12.011    3.835279    1.314815   -2.758588
  10 O     8.0000    0    15.999    6.324348   -0.056924    1.451890
  11 C     6.0000    0    12.011   -0.131667   -5.473308    8.223982
  12 C     6.0000    0    12.011   -0.688951   -2.761342    7.623724
  13 N     7.0000    0    14.007   -3.028658   -2.027285    7.141022
  14 C     6.0000    0    12.011   -3.544198    0.566334    6.390449
  15 C     6.0000    0    12.011   -5.122653   -3.752862    6.814290
  16 O     8.0000    0    15.999    1.070747   -1.166071    7.618344
  17 H     1.0000    0     1.008    9.793568    2.558684    3.244544
  18 H     1.0000    0     1.008    7.874837    5.228455    2.821427
  19 H     1.0000    0     1.008   10.198744    4.473244    0.531370
  20 H     1.0000    0     1.008    6.454373    5.291418   -4.592038
  21 H     1.0000    0     1.008    4.279744    6.386619   -2.295258
  22 H     1.0000    0     1.008    7.543543    6.411977   -1.650326
  23 H     1.0000    0     1.008    3.891039    1.641129   -4.789241
  24 H     1.0000    0     1.008    1.987629    1.854381   -2.024764
  25 H     1.0000    0     1.008    4.118127   -0.679897   -2.386921
  26 H     1.0000    0     1.008   -0.300442   -6.612996    6.514292
  27 H     1.0000    0     1.008    1.802525   -5.627240    8.886074
  28 H     1.0000    0     1.008   -1.395109   -6.241270    9.656011
  29 H     1.0000    0     1.008   -5.450919    1.054214    6.989262
  30 H     1.0000    0     1.008   -2.213368    1.861095    7.256323
  31 H     1.0000    0     1.008   -3.396008    0.759005    4.345017
  32 H     1.0000    0     1.008   -6.755060   -3.083474    7.876097
  33 H     1.0000    0     1.008   -4.668037   -5.643569    7.457466
  34 H     1.0000    0     1.008   -5.634655   -3.858114    4.819081
* core charge reduced due to ECP

--------------------------------
INTERNAL COORDINATES (ANGSTROEM)
--------------------------------
 Cl     0   0   0     0.000000000000     0.00000000     0.00000000
 Sn     1   0   0     2.375598148378     0.00000000     0.00000000
 Cl     2   1   0     2.427198616639    89.43581684     0.00000000
 Cl     2   1   3     2.376011256319    92.74835796   175.02031940
 Cl     2   1   3     2.423686760757   174.19267126   294.15966049
 C      1   2   3     3.465273542624    78.90466277   291.54289069
 C      6   1   2     1.499362423502    87.74753956   359.94452997
 N      7   6   1     1.322158080873   120.51844132   144.50197452
 C      8   7   6     1.446422685294   123.65349580   349.62400584
 C      8   7   6     1.454653052884   120.36813087   183.27224415
 O      7   6   1     1.256972322183   119.70349362   323.36241230
 C      4   2   1     3.533814152475    77.41144638   109.22013134
 C     12   4   2     1.499135700120    87.59269285   355.15340948
 N     13  12   4     1.322527303514   120.41466140   148.80007943
 C     14  13  12     1.454611781953   120.36118432   184.20904053
 C     14  13  12     1.446230870758   123.70626668   351.38150540
 O     13  12   4     1.256888303325   119.84788251   327.65592762
 H      6   1   2     1.084912418901    52.69270235   243.84546358
 H      6   1   2     1.091322776287    70.41290079   111.72492424
 H      6   1   2     1.088795817164   157.42332006   203.62492101
 H      9   8   7     1.089614582360   110.06657172   134.08399903
 H      9   8   7     1.091418238135   109.55148359   253.43781169
 H      9   8   7     1.083923121260   112.08646651    13.38235979
 H     10   8   7     1.088760664865   108.48145104   209.39203607
 H     10   8   7     1.090084227829   110.18505136    89.49237267
 H     10   8   7     1.084105119049   111.05634052   329.47294555
 H     12   4   2     1.090979921077    78.03822272   105.89038060
 H     12   4   2     1.084898076432    45.89965005   235.48691613
 H     12   4   2     1.089226056417   153.60385817   213.94580037
 H     15  14  13     1.088638081071   108.54886267   208.28922493
 H     15  14  13     1.084135905406   111.04303881   328.36238360
 H     15  14  13     1.090011867012   110.23726623    88.37732170
 H     16  14  13     1.089677214578   109.90737756   134.58620834
 H     16  14  13     1.083860693014   112.03887738    14.12138154
 H     16  14  13     1.091450594470   109.75917783   253.93623808

---------------------------
INTERNAL COORDINATES (A.U.)
---------------------------
 Cl     0   0   0     0.000000000000     0.00000000     0.00000000
 Sn     1   0   0     4.489229904684     0.00000000     0.00000000
 Cl     2   1   0     4.586740658081    89.43581684     0.00000000
 Cl     2   1   3     4.490010565556    92.74835796   175.02031940
 Cl     2   1   3     4.580104212242   174.19267126   294.15966049
 C      1   2   3     6.548417974683    78.90466277   291.54289069
 C      6   1   2     2.833384355912    87.74753956   359.94452997
 N      7   6   1     2.498516678600   120.51844132   144.50197452
 C      8   7   6     2.733342749097   123.65349580   349.62400584
 C      8   7   6     2.748895889823   120.36813087   183.27224415
 O      7   6   1     2.375333446844   119.70349362   323.36241230
 C      4   2   1     6.677940956352    77.41144638   109.22013134
 C     12   4   2     2.832955910811    87.59269285   355.15340948
 N     13  12   4     2.499214408276   120.41466140   148.80007943
 C     14  13  12     2.748817899066   120.36118432   184.20904053
 C     14  13  12     2.732980272155   123.70626668   351.38150540
 O     13  12   4     2.375174674212   119.84788251   327.65592762
 H      6   1   2     2.050187351013    52.69270235   243.84546358
 H      6   1   2     2.062301170893    70.41290079   111.72492424
 H      6   1   2     2.057525910199   157.42332006   203.62492101
 H      9   8   7     2.059073152187   110.06657172   134.08399903
 H      9   8   7     2.062481567642   109.55148359   253.43781169
 H      9   8   7     2.048317849406   112.08646651    13.38235979
 H     10   8   7     2.057459481981   108.48145104   209.39203607
 H     10   8   7     2.059960653503   110.18505136    89.49237267
 H     10   8   7     2.048661775385   111.05634052   329.47294555
 H     12   4   2     2.061653268443    78.03822272   105.89038060
 H     12   4   2     2.050160247674    45.89965005   235.48691613
 H     12   4   2     2.058338944559   153.60385817   213.94580037
 H     15  14  13     2.057227832182   108.54886267   208.28922493
 H     15  14  13     2.048719953168   111.04303881   328.36238360
 H     15  14  13     2.059823911376   110.23726623    88.37732170
 H     16  14  13     2.059191509926   109.90737756   134.58620834
 H     16  14  13     2.048199877119   112.03887738    14.12138154
 H     16  14  13     2.062542712255   109.75917783   253.93623808

---------------------
BASIS SET INFORMATION
---------------------
There are 6 groups of distinct atoms

 Group   1 Type Cl  : 10s7p1d contracted to 4s3p1d pattern {5311/511/1}
 Group   2 Type Sn  : 10s7p6d contracted to 4s4p2d pattern {6211/4111/51}
 Group   3 Type C   : 7s4p1d contracted to 3s2p1d pattern {511/31/1}
 Group   4 Type N   : 7s4p1d contracted to 3s2p1d pattern {511/31/1}
 Group   5 Type O   : 7s4p1d contracted to 3s2p1d pattern {511/31/1}
 Group   6 Type H   : 4s1p contracted to 2s1p pattern {31/1}

Atom   0Cl   basis set group =>   1
Atom   1Sn   basis set group =>   2
Atom   2Cl   basis set group =>   1
Atom   3Cl   basis set group =>   1
Atom   4Cl   basis set group =>   1
Atom   5C    basis set group =>   3
Atom   6C    basis set group =>   3
Atom   7N    basis set group =>   4
Atom   8C    basis set group =>   3
Atom   9C    basis set group =>   3
Atom  10O    basis set group =>   5
Atom  11C    basis set group =>   3
Atom  12C    basis set group =>   3
Atom  13N    basis set group =>   4
Atom  14C    basis set group =>   3
Atom  15C    basis set group =>   3
Atom  16O    basis set group =>   5
Atom  17H    basis set group =>   6
Atom  18H    basis set group =>   6
Atom  19H    basis set group =>   6
Atom  20H    basis set group =>   6
Atom  21H    basis set group =>   6
Atom  22H    basis set group =>   6
Atom  23H    basis set group =>   6
Atom  24H    basis set group =>   6
Atom  25H    basis set group =>   6
Atom  26H    basis set group =>   6
Atom  27H    basis set group =>   6
Atom  28H    basis set group =>   6
Atom  29H    basis set group =>   6
Atom  30H    basis set group =>   6
Atom  31H    basis set group =>   6
Atom  32H    basis set group =>   6
Atom  33H    basis set group =>   6
Atom  34H    basis set group =>   6
-------------------------
ECP PARAMETER INFORMATION
-------------------------

 Group 1, Type Sn ECP Def2-ECP (replacing 28 core electrons, lmax=3)

Atom   1Sn   ECP group =>   1

------------------------------------------------------------------------------
                           ORCA GTO INTEGRAL CALCULATION
------------------------------------------------------------------------------
------------------------------------------------------------------------------
                   ___                                                        
                  /   \      - P O W E R E D   B Y -                         
                 /     \                                                     
                 |  |  |   _    _      __       _____    __    __             
                 |  |  |  | |  | |    /  \     |  _  \  |  |  /  |          
                  \  \/   | |  | |   /    \    | | | |  |  | /  /          
                 / \  \   | |__| |  /  /\  \   | |_| |  |  |/  /          
                |  |  |   |  __  | /  /__\  \  |    /   |      \           
                |  |  |   | |  | | |   __   |  |    \   |  |\   \          
                \     /   | |  | | |  |  |  |  | |\  \  |  | \   \       
                 \___/    |_|  |_| |__|  |__|  |_| \__\ |__|  \__/        
                                                                              
                      - O R C A' S   B I G   F R I E N D -                    
                                      &                                       
                       - I N T E G R A L  F E E D E R -                       
                                                                              
 v1 FN, 2020, v2 2021                                                         
------------------------------------------------------------------------------


Reading SHARK input file START_a007_b027_2.SHARKINP.tmp ... ok
----------------------
SHARK INTEGRAL PACKAGE
----------------------

Number of atoms                             ...     35
Number of basis functions                   ...    356
Number of shells                            ...    168
Maximum angular momentum                    ...      2
Integral batch strategy                     ... SHARK/LIBINT Hybrid
RI-J (if used) integral strategy            ... SPLIT-RIJ (Revised 2003 algorithm where possible)
Printlevel                                  ...      1
Contraction scheme used                     ... SEGMENTED contraction
Coulomb Range Separation                    ... NOT USED
Exchange Range Separation                   ... NOT USED
Finite Nucleus Model                        ... NOT USED
Auxiliary Coulomb fitting basis             ... NOT available
Auxiliary J/K fitting basis                 ... NOT available
Auxiliary Correlation fitting basis         ... NOT available
Auxiliary 'external' fitting basis          ... NOT available
Integral threshold                          ...     1.000000e-10
Primitive cut-off                           ...     1.000000e-11
Primitive pair pre-selection threshold      ...     1.000000e-11

Calculating pre-screening integrals         ... done (  0.1 sec) Dimension = 168
Organizing shell pair data                  ... done (  0.1 sec)
Shell pair information
Total number of shell pairs                 ...     14196
Shell pairs after pre-screening             ...     10108
Total number of primitive shell pairs       ...     54619
Primitive shell pairs kept                  ...     24567
          la=0 lb=0:   3155 shell pairs
          la=1 lb=0:   3793 shell pairs
          la=1 lb=1:   1184 shell pairs
          la=2 lb=0:   1152 shell pairs
          la=2 lb=1:    709 shell pairs
          la=2 lb=2:    115 shell pairs

Calculating one electron integrals          ... done (  0.1 sec)
Calculating ECP integrals                   ... done (  0.3 sec)
Calculating Nuclear repulsion               ... done (  0.0 sec) ENN=   2399.037883759687 Eh

SHARK setup successfully completed in   0.7 seconds

Maximum memory used throughout the entire GTOINT-calculation: 69.9 MB
-------------------------------------------------------------------------------
                                 ORCA SCF
-------------------------------------------------------------------------------

------------
SCF SETTINGS
------------
Hamiltonian:
 Ab initio Hamiltonian  Method          .... Hartree-Fock(GTOs)


General Settings:
 Integral files         IntName         .... START_a007_b027_2
 Hartree-Fock type      HFTyp           .... RHF
 Total Charge           Charge          ....    0
 Multiplicity           Mult            ....    1
 Number of Electrons    NEL             ....  186
 Basis Dimension        Dim             ....  356
 Nuclear Repulsion      ENuc            ....   2399.0378837597 Eh

Convergence Acceleration:
 DIIS                   CNVDIIS         .... on
   Start iteration      DIISMaxIt       ....    12
   Startup error        DIISStart       ....  0.200000
   # of expansion vecs  DIISMaxEq       ....     5
   Bias factor          DIISBfac        ....   1.050
   Max. coefficient     DIISMaxC        ....  10.000
 Trust-Rad. Augm. Hess. CNVTRAH         .... auto
   Auto Start mean grad. ratio tolernc. ....  1.125000
   Auto Start start iteration           ....    20
   Auto Start num. interpolation iter.  ....    10
   Max. Number of Micro iterations      ....    16
   Max. Number of Macro iterations      .... Maxiter - #DIIS iter
   Number of Davidson start vectors     ....     2
   Converg. threshold I  (grad. norm)   ....   5.000e-05
   Converg. threshold II (energy diff.) ....   1.000e-06
   Grad. Scal. Fac. for Micro threshold ....   0.100
   Minimum threshold for Micro iter.    ....   0.010
   NR start threshold (gradient norm)   ....   0.001
   Initial trust radius                 ....   0.400
   Minimum AH scaling param. (alpha)    ....   1.000
   Maximum AH scaling param. (alpha)    .... 1000.000
   Orbital update algorithm             .... Taylor
   White noise on init. David. guess    .... on
   Maximum white noise                  ....   0.010
   Quad. conv. algorithm                .... NR
 SOSCF                  CNVSOSCF        .... on
   Start iteration      SOSCFMaxIt      ....   150
   Startup grad/error   SOSCFStart      ....  0.003300
 Level Shifting         CNVShift        .... on
   Level shift para.    LevelShift      ....    0.2500
   Turn off err/grad.   ShiftErr        ....    0.0010
 Zerner damping         CNVZerner       .... off
 Static damping         CNVDamp         .... on
   Fraction old density DampFac         ....    0.7000
   Max. Damping (<1)    DampMax         ....    0.9800
   Min. Damping (>=0)   DampMin         ....    0.0000
   Turn off err/grad.   DampErr         ....    0.1000
 Fernandez-Rico         CNVRico         .... off

SCF Procedure:
 Maximum # iterations   MaxIter         ....     0
 SCF integral mode      SCFMode         .... Direct
   Integral package                     .... SHARK and LIBINT hybrid scheme
 Reset frequency        DirectResetFreq ....    20
 Integral Threshold     Thresh          ....  1.000e-10 Eh
 Primitive CutOff       TCut            ....  1.000e-11 Eh

Convergence Tolerance:
 Convergence Check Mode ConvCheckMode   .... Total+1el-Energy
 Convergence forced     ConvForced      .... 0
 Energy Change          TolE            ....  1.000e-06 Eh
 1-El. energy change                    ....  1.000e-03 Eh
 Orbital Gradient       TolG            ....  5.000e-05
 Orbital Rotation angle TolX            ....  5.000e-05
 DIIS Error             TolErr          ....  1.000e-06


Diagonalization of the overlap matrix:
Smallest eigenvalue                        ... 2.471e-03
Time for diagonalization                   ...    0.017 sec
Threshold for overlap eigenvalues          ... 1.000e-08
Number of eigenvalues below threshold      ... 0
Time for construction of square roots      ...    0.006 sec
Total time needed                          ...    0.023 sec

Time for model grid setup =    0.800 sec

------------------------------
INITIAL GUESS: MODEL POTENTIAL
------------------------------
Loading Hartree-Fock densities                     ... done
  calling /opt/bwhpc/common/chem/orca/5.0.2_static/orca START_a007_b027_2_atom50.inp > START_a007_b027_2_atom50.out in order to generate an atomic fitting density for atom 1 (Sn with ECP) on-the-fly... 
    atom 1 (Sn), assumed electronic state with S=3: 1s2 2s2 2p6 3s2 3p6 4s2 3d10 4p6 5s2 4d10 5p2           ... done
Calculating cut-offs                               ... done
Initializing the effective Hamiltonian             ... done
Setting up the integral package (SHARK)            ... done
Starting the Coulomb interaction                   ... done (   0.9 sec)
Reading the grid                                   ... done
Mapping shells                                     ... done
Starting the XC term evaluation                    ... done (   0.4 sec)
Transforming the Hamiltonian                       ... done (   0.0 sec)
Diagonalizing the Hamiltonian                      ... done (   0.0 sec)
Back transforming the eigenvectors                 ... done (   0.0 sec)
Now organizing SCF variables                       ... done
                      ------------------
                      INITIAL GUESS DONE (   2.5 sec)
                      ------------------

     ****MaxIter==0 has been chosen - skipping the SCF****

!!!!!!!!!!!!!!!!!!!!!!!!!!!!!!!!!!!!!!!!!!!!!!!!!!!!!!!!!!!
!! SERIOUS WARNING: The orbitals and populations did NOT !!
!!                  come from a CONVERGED calculation    !!
!!!!!!!!!!!!!!!!!!!!!!!!!!!!!!!!!!!!!!!!!!!!!!!!!!!!!!!!!!!

THE WAVEFUNCTION AND DENSITY WILL STILL BE STORED BUT BE CAREFUL
MAKE SURE THAT WHAT YOU INPUT MAKES ACTUALLY SENSE!

             **** DENSITY START_a007_b027_2.scfp WAS UPDATED ****
----------------
ORBITAL ENERGIES
----------------

  NO   OCC          E(Eh)            E(eV) 
   0   2.0000    -100.395212     -2731.8926 
   1   2.0000    -100.395073     -2731.8888 
   2   2.0000    -100.382690     -2731.5519 
   3   2.0000    -100.381821     -2731.5282 
   4   2.0000     -18.957634      -515.8635 
   5   2.0000     -18.957367      -515.8562 
   6   2.0000     -14.052994      -382.4014 
   7   2.0000     -14.052942      -382.4000 
   8   2.0000      -9.966694      -271.2075 
   9   2.0000      -9.966680      -271.2071 
  10   2.0000      -9.962711      -271.0992 
  11   2.0000      -9.962698      -271.0988 
  12   2.0000      -9.962585      -271.0957 
  13   2.0000      -9.962573      -271.0954 
  14   2.0000      -9.960731      -271.0453 
  15   2.0000      -9.960476      -271.0383 
  16   2.0000      -9.939116      -270.4571 
  17   2.0000      -9.292009      -252.8484 
  18   2.0000      -9.291879      -252.8449 
  19   2.0000      -9.279170      -252.4991 
  20   2.0000      -9.278283      -252.4749 
  21   2.0000      -8.155124      -221.9122 
  22   2.0000      -8.153950      -221.8802 
  23   2.0000      -8.153639      -221.8718 
  24   2.0000      -7.151934      -194.6140 
  25   2.0000      -7.151837      -194.6114 
  26   2.0000      -7.144513      -194.4121 
  27   2.0000      -7.144477      -194.4111 
  28   2.0000      -7.144381      -194.4085 
  29   2.0000      -7.144341      -194.4074 
  30   2.0000      -7.138873      -194.2586 
  31   2.0000      -7.137977      -194.2342 
  32   2.0000      -7.132010      -194.0719 
  33   2.0000      -7.131997      -194.0715 
  34   2.0000      -7.131166      -194.0489 
  35   2.0000      -7.131119      -194.0476 
  36   2.0000      -5.337444      -145.2392 
  37   2.0000      -5.333886      -145.1424 
  38   2.0000      -5.294030      -144.0579 
  39   2.0000      -5.291578      -143.9912 
  40   2.0000      -5.290593      -143.9643 
  41   2.0000      -2.253741       -61.3274 
  42   2.0000      -1.629965       -44.3536 
  43   2.0000      -1.604572       -43.6626 
  44   2.0000      -1.604086       -43.6494 
  45   2.0000      -1.240873       -33.7659 
  46   2.0000      -1.189370       -32.3644 
  47   2.0000      -1.030420       -28.0391 
  48   2.0000      -1.003719       -27.3126 
  49   2.0000      -0.990014       -26.9396 
  50   2.0000      -0.968587       -26.3566 
  51   2.0000      -0.891401       -24.2563 
  52   2.0000      -0.890554       -24.2332 
  53   2.0000      -0.852037       -23.1851 
  54   2.0000      -0.819024       -22.2868 
  55   2.0000      -0.798419       -21.7261 
  56   2.0000      -0.783592       -21.3226 
  57   2.0000      -0.758514       -20.6402 
  58   2.0000      -0.749825       -20.4038 
  59   2.0000      -0.745194       -20.2777 
  60   2.0000      -0.722000       -19.6466 
  61   2.0000      -0.711886       -19.3714 
  62   2.0000      -0.704746       -19.1771 
  63   2.0000      -0.692542       -18.8450 
  64   2.0000      -0.643102       -17.4997 
  65   2.0000      -0.624025       -16.9806 
  66   2.0000      -0.619111       -16.8469 
  67   2.0000      -0.601767       -16.3749 
  68   2.0000      -0.597948       -16.2710 
  69   2.0000      -0.578491       -15.7415 
  70   2.0000      -0.571214       -15.5435 
  71   2.0000      -0.552019       -15.0212 
  72   2.0000      -0.536753       -14.6058 
  73   2.0000      -0.533965       -14.5299 
  74   2.0000      -0.525888       -14.3101 
  75   2.0000      -0.520994       -14.1770 
  76   2.0000      -0.497424       -13.5356 
  77   2.0000      -0.495158       -13.4739 
  78   2.0000      -0.488529       -13.2935 
  79   2.0000      -0.486697       -13.2437 
  80   2.0000      -0.485048       -13.1988 
  81   2.0000      -0.484314       -13.1789 
  82   2.0000      -0.471814       -12.8387 
  83   2.0000      -0.471726       -12.8363 
  84   2.0000      -0.469106       -12.7650 
  85   2.0000      -0.465360       -12.6631 
  86   2.0000      -0.450674       -12.2635 
  87   2.0000      -0.450452       -12.2574 
  88   2.0000      -0.447564       -12.1788 
  89   2.0000      -0.445587       -12.1250 
  90   2.0000      -0.440916       -11.9979 
  91   2.0000      -0.435714       -11.8564 
  92   2.0000      -0.435066       -11.8387 
  93   0.0000      -0.434407       -11.8208 
  94   0.0000      -0.410151       -11.1608 
  95   0.0000      -0.369408       -10.0521 
  96   0.0000      -0.368567       -10.0292 
  97   0.0000      -0.356160        -9.6916 
  98   0.0000      -0.350587        -9.5400 
  99   0.0000      -0.344862        -9.3842 
 100   0.0000      -0.284109        -7.7310 
 101   0.0000      -0.219646        -5.9769 
 102   0.0000      -0.157178        -4.2770 
 103   0.0000      -0.155889        -4.2419 
 104   0.0000      -0.094845        -2.5809 
 105   0.0000      -0.041469        -1.1284 
 106   0.0000      -0.041111        -1.1187 
 107   0.0000      -0.027773        -0.7557 
 108   0.0000      -0.013777        -0.3749 
 109   0.0000      -0.010134        -0.2758 
 110   0.0000      -0.001373        -0.0374 
 111   0.0000       0.003934         0.1071 
 112   0.0000       0.009364         0.2548 
 113   0.0000       0.012564         0.3419 
 114   0.0000       0.023710         0.6452 
 115   0.0000       0.026745         0.7278 
 116   0.0000       0.030645         0.8339 
 117   0.0000       0.031844         0.8665 
 118   0.0000       0.035083         0.9547 
 119   0.0000       0.037740         1.0270 
 120   0.0000       0.041448         1.1279 
 121   0.0000       0.042291         1.1508 
 122   0.0000       0.050359         1.3703 
 123   0.0000       0.053519         1.4563 
 124   0.0000       0.060709         1.6520 
 125   0.0000       0.065037         1.7697 
 126   0.0000       0.075182         2.0458 
 127   0.0000       0.076033         2.0690 
 128   0.0000       0.082752         2.2518 
 129   0.0000       0.086865         2.3637 
 130   0.0000       0.102166         2.7801 
 131   0.0000       0.104222         2.8360 
 132   0.0000       0.170801         4.6477 
 133   0.0000       0.175152         4.7661 
 134   0.0000       0.201142         5.4733 
 135   0.0000       0.201899         5.4939 
 136   0.0000       0.275460         7.4956 
 137   0.0000       0.279868         7.6156 
 138   0.0000       0.280006         7.6193 
 139   0.0000       0.287353         7.8193 
 140   0.0000       0.301719         8.2102 
 141   0.0000       0.303931         8.2704 
 142   0.0000       0.311007         8.4629 
 143   0.0000       0.316755         8.6193 
 144   0.0000       0.320508         8.7215 
 145   0.0000       0.329899         8.9770 
 146   0.0000       0.356016         9.6877 
 147   0.0000       0.371206        10.1010 
 148   0.0000       0.380833        10.3630 
 149   0.0000       0.385323        10.4852 
 150   0.0000       0.405823        11.0430 
 151   0.0000       0.417081        11.3494 
 152   0.0000       0.420727        11.4486 
 153   0.0000       0.424377        11.5479 
 154   0.0000       0.432174        11.7600 
 155   0.0000       0.440660        11.9910 
 156   0.0000       0.444778        12.1030 
 157   0.0000       0.446515        12.1503 
 158   0.0000       0.461121        12.5477 
 159   0.0000       0.463047        12.6002 
 160   0.0000       0.473152        12.8751 
 161   0.0000       0.474571        12.9137 
 162   0.0000       0.481392        13.0993 
 163   0.0000       0.488459        13.2916 
 164   0.0000       0.492673        13.4063 
 165   0.0000       0.499194        13.5838 
 166   0.0000       0.500772        13.6267 
 167   0.0000       0.503735        13.7073 
 168   0.0000       0.505669        13.7600 
 169   0.0000       0.508659        13.8413 
 170   0.0000       0.510180        13.8827 
 171   0.0000       0.514472        13.9995 
 172   0.0000       0.516400        14.0520 
 173   0.0000       0.518137        14.0992 
 174   0.0000       0.520339        14.1591 
 175   0.0000       0.524803        14.2806 
 176   0.0000       0.525383        14.2964 
 177   0.0000       0.529062        14.3965 
 178   0.0000       0.531076        14.4513 
 179   0.0000       0.533699        14.5227 
 180   0.0000       0.540283        14.7018 
 181   0.0000       0.542823        14.7710 
 182   0.0000       0.543867        14.7994 
 183   0.0000       0.545971        14.8566 
 184   0.0000       0.552610        15.0373 
 185   0.0000       0.554821        15.0975 
 186   0.0000       0.558385        15.1944 
 187   0.0000       0.562677        15.3112 
 188   0.0000       0.564487        15.3605 
 189   0.0000       0.566181        15.4066 
 190   0.0000       0.573693        15.6110 
 191   0.0000       0.575818        15.6688 
 192   0.0000       0.588280        16.0079 
 193   0.0000       0.592324        16.1180 
 194   0.0000       0.592932        16.1345 
 195   0.0000       0.599296        16.3077 
 196   0.0000       0.605637        16.4802 
 197   0.0000       0.607410        16.5285 
 198   0.0000       0.616501        16.7758 
 199   0.0000       0.620430        16.8828 
 200   0.0000       0.623255        16.9596 
 201   0.0000       0.625871        17.0308 
 202   0.0000       0.638956        17.3869 
 203   0.0000       0.642444        17.4818 
 204   0.0000       0.648602        17.6494 
 205   0.0000       0.666965        18.1490 
 206   0.0000       0.676303        18.4032 
 207   0.0000       0.692447        18.8424 
 208   0.0000       0.699159        19.0251 
 209   0.0000       0.726766        19.7763 
 210   0.0000       0.730966        19.8906 
 211   0.0000       0.744235        20.2517 
 212   0.0000       0.772523        21.0214 
 213   0.0000       0.776840        21.1389 
 214   0.0000       0.795315        21.6416 
 215   0.0000       0.810861        22.0646 
 216   0.0000       0.827513        22.5178 
 217   0.0000       0.833101        22.6698 
 218   0.0000       0.839146        22.8343 
 219   0.0000       0.854993        23.2655 
 220   0.0000       0.872189        23.7335 
 221   0.0000       0.878182        23.8966 
 222   0.0000       0.895256        24.3611 
 223   0.0000       0.921883        25.0857 
 224   0.0000       0.933954        25.4142 
 225   0.0000       0.944327        25.6965 
 226   0.0000       0.971324        26.4311 
 227   0.0000       0.990142        26.9431 
 228   0.0000       1.001043        27.2398 
 229   0.0000       1.008303        27.4373 
 230   0.0000       1.028943        27.9990 
 231   0.0000       1.032996        28.1092 
 232   0.0000       1.047761        28.5110 
 233   0.0000       1.053617        28.6704 
 234   0.0000       1.064897        28.9773 
 235   0.0000       1.081449        29.4277 
 236   0.0000       1.093831        29.7646 
 237   0.0000       1.115050        30.3420 
 238   0.0000       1.128267        30.7017 
 239   0.0000       1.183060        32.1927 
 240   0.0000       1.200906        32.6783 
 241   0.0000       1.251101        34.0442 
 242   0.0000       1.260438        34.2983 
 243   0.0000       1.267156        34.4811 
 244   0.0000       1.269466        34.5439 
 245   0.0000       1.295656        35.2566 
 246   0.0000       1.337764        36.4024 
 247   0.0000       1.339486        36.4493 
 248   0.0000       1.377420        37.4815 
 249   0.0000       1.379245        37.5312 
 250   0.0000       1.385466        37.7005 
 251   0.0000       1.388848        37.7925 
 252   0.0000       1.395938        37.9854 
 253   0.0000       1.397963        38.0405 
 254   0.0000       1.408043        38.3148 
 255   0.0000       1.412781        38.4437 
 256   0.0000       1.419800        38.6347 
 257   0.0000       1.440252        39.1913 
 258   0.0000       1.456313        39.6283 
 259   0.0000       1.468335        39.9554 
 260   0.0000       1.528449        41.5912 
 261   0.0000       1.528541        41.5937 
 262   0.0000       1.564341        42.5679 
 263   0.0000       1.567739        42.6603 
 264   0.0000       1.605369        43.6843 
 265   0.0000       1.608833        43.7786 
 266   0.0000       1.617410        44.0120 
 267   0.0000       1.620067        44.0843 
 268   0.0000       1.642975        44.7076 
 269   0.0000       1.646216        44.7958 
 270   0.0000       1.657073        45.0912 
 271   0.0000       1.658361        45.1263 
 272   0.0000       1.662462        45.2379 
 273   0.0000       1.667853        45.3846 
 274   0.0000       1.669232        45.4221 
 275   0.0000       1.672002        45.4975 
 276   0.0000       1.678657        45.6786 
 277   0.0000       1.680924        45.7403 
 278   0.0000       1.696156        46.1547 
 279   0.0000       1.698646        46.2225 
 280   0.0000       1.750197        47.6253 
 281   0.0000       1.753705        47.7208 
 282   0.0000       1.790774        48.7294 
 283   0.0000       1.791766        48.7564 
 284   0.0000       1.801265        49.0149 
 285   0.0000       1.808111        49.2012 
 286   0.0000       1.826352        49.6976 
 287   0.0000       1.828225        49.7485 
 288   0.0000       1.871075        50.9146 
 289   0.0000       1.874027        50.9949 
 290   0.0000       1.895900        51.5901 
 291   0.0000       1.901570        51.7444 
 292   0.0000       1.941390        52.8279 
 293   0.0000       1.942101        52.8473 
 294   0.0000       1.958452        53.2922 
 295   0.0000       1.965624        53.4873 
 296   0.0000       2.019343        54.9491 
 297   0.0000       2.020014        54.9674 
 298   0.0000       2.102174        57.2031 
 299   0.0000       2.103660        57.2435 
 300   0.0000       2.115799        57.5738 
 301   0.0000       2.118779        57.6549 
 302   0.0000       2.157493        58.7084 
 303   0.0000       2.163290        58.8661 
 304   0.0000       2.186274        59.4916 
 305   0.0000       2.201381        59.9026 
 306   0.0000       2.224299        60.5263 
 307   0.0000       2.226469        60.5853 
 308   0.0000       2.248603        61.1876 
 309   0.0000       2.254606        61.3510 
 310   0.0000       2.279777        62.0359 
 311   0.0000       2.281621        62.0861 
 312   0.0000       2.299695        62.5779 
 313   0.0000       2.305160        62.7266 
 314   0.0000       2.311267        62.8928 
 315   0.0000       2.322829        63.2074 
 316   0.0000       2.343897        63.7807 
 317   0.0000       2.361753        64.2666 
 318   0.0000       2.433458        66.2178 
 319   0.0000       2.434186        66.2376 
 320   0.0000       2.472771        67.2875 
 321   0.0000       2.473829        67.3163 
 322   0.0000       2.521818        68.6222 
 323   0.0000       2.522704        68.6463 
 324   0.0000       2.539318        69.0984 
 325   0.0000       2.540450        69.1292 
 326   0.0000       2.553222        69.4767 
 327   0.0000       2.554304        69.5061 
 328   0.0000       2.645617        71.9909 
 329   0.0000       2.650585        72.1261 
 330   0.0000       2.660290        72.3902 
 331   0.0000       2.662598        72.4530 
 332   0.0000       2.699645        73.4611 
 333   0.0000       2.704435        73.5914 
 334   0.0000       2.720704        74.0341 
 335   0.0000       2.721984        74.0689 
 336   0.0000       2.731052        74.3157 
 337   0.0000       2.735773        74.4442 
 338   0.0000       2.761556        75.1458 
 339   0.0000       2.762143        75.1617 
 340   0.0000       2.800939        76.2174 
 341   0.0000       2.804303        76.3090 
 342   0.0000       2.823467        76.8305 
 343   0.0000       2.826200        76.9048 
 344   0.0000       2.858400        77.7810 
 345   0.0000       2.860210        77.8303 
 346   0.0000       3.021202        82.2111 
 347   0.0000       3.022857        82.2561 
 348   0.0000       3.156817        85.9014 
 349   0.0000       3.160420        85.9994 
 350   0.0000       3.289441        89.5102 
 351   0.0000       3.293964        89.6333 
 352   0.0000       9.612169       261.5604 
 353   0.0000       9.625293       261.9175 
 354   0.0000       9.909378       269.6479 
 355   0.0000      43.664068      1188.1597 

                    ********************************
                    * MULLIKEN POPULATION ANALYSIS *
                    ********************************

-----------------------
MULLIKEN ATOMIC CHARGES
-----------------------
   0 Cl:    1.898442
   1 Sn:  -14.087969
   2 Cl:    2.371524
   3 Cl:    1.955214
   4 Cl:    2.329168
   5 C :   -0.344414
   6 C :    0.960789
   7 N :    0.834144
   8 C :   -0.124145
   9 C :   -0.134643
  10 O :   -0.461990
  11 C :   -0.332958
  12 C :    0.957012
  13 N :    0.831706
  14 C :   -0.137770
  15 C :   -0.127922
  16 O :   -0.463544
  17 H :    0.192598
  18 H :    0.245159
  19 H :    0.234591
  20 H :    0.243892
  21 H :    0.267513
  22 H :    0.164043
  23 H :    0.211050
  24 H :    0.287315
  25 H :    0.197692
  26 H :    0.241329
  27 H :    0.186842
  28 H :    0.237206
  29 H :    0.207166
  30 H :    0.199956
  31 H :    0.285282
  32 H :    0.241750
  33 H :    0.164692
  34 H :    0.269280
Sum of atomic charges:   -0.0000000

--------------------------------
MULLIKEN REDUCED ORBITAL CHARGES
--------------------------------
  0 Cls       :     5.974611  s :     5.974611
      pz      :     3.004346  p :     9.089337
      px      :     3.109081
      py      :     2.975910
      dz2     :     0.015815  d :     0.037609
      dxz     :     0.003185
      dyz     :     0.004077
      dx2y2   :     0.009825
      dxy     :     0.004707
  1 Sns       :     4.121860  s :     4.121860
      pz      :     4.348651  p :    12.901691
      px      :     4.317550
      py      :     4.235490
      dz2     :     3.787225  d :    19.064418
      dxz     :     3.836948
      dyz     :     3.805775
      dx2y2   :     3.777074
      dxy     :     3.857396
  2 Cls       :     5.985747  s :     5.985747
      pz      :     2.773727  p :     8.612584
      px      :     2.944469
      py      :     2.894389
      dz2     :     0.002134  d :     0.030145
      dxz     :     0.002978
      dyz     :     0.009644
      dx2y2   :     0.009047
      dxy     :     0.006342
  3 Cls       :     5.976928  s :     5.976928
      pz      :     2.836433  p :     9.031104
      px      :     3.166894
      py      :     3.027777
      dz2     :     0.001196  d :     0.036754
      dxz     :     0.004221
      dyz     :     0.012291
      dx2y2   :     0.012506
      dxy     :     0.006540
  4 Cls       :     5.982776  s :     5.982776
      pz      :     2.882103  p :     8.656777
      px      :     3.146365
      py      :     2.628309
      dz2     :     0.012770  d :     0.031278
      dxz     :     0.003208
      dyz     :     0.002879
      dx2y2   :     0.007859
      dxy     :     0.004561
  5 C s       :     3.028713  s :     3.028713
      pz      :     1.130153  p :     3.295711
      px      :     1.061779
      py      :     1.103779
      dz2     :     0.001198  d :     0.019990
      dxz     :     0.006390
      dyz     :     0.005184
      dx2y2   :     0.000978
      dxy     :     0.006241
  6 C s       :     2.947038  s :     2.947038
      pz      :     0.696963  p :     2.010011
      px      :     0.616482
      py      :     0.696567
      dz2     :     0.014958  d :     0.082162
      dxz     :     0.012682
      dyz     :     0.021293
      dx2y2   :     0.017292
      dxy     :     0.015937
  7 N s       :     3.371265  s :     3.371265
      pz      :     0.899596  p :     2.769778
      px      :     0.823961
      py      :     1.046221
      dz2     :     0.005123  d :     0.024813
      dxz     :     0.004292
      dyz     :     0.005183
      dx2y2   :     0.005079
      dxy     :     0.005136
  8 C s       :     3.044403  s :     3.044403
      pz      :     1.079763  p :     3.051321
      px      :     1.107055
      py      :     0.864504
      dz2     :     0.005794  d :     0.028421
      dxz     :     0.002799
      dyz     :     0.006239
      dx2y2   :     0.007426
      dxy     :     0.006163
  9 C s       :     3.064836  s :     3.064836
      pz      :     1.069856  p :     3.041432
      px      :     0.928198
      py      :     1.043378
      dz2     :     0.007240  d :     0.028375
      dxz     :     0.005259
      dyz     :     0.003612
      dx2y2   :     0.005778
      dxy     :     0.006485
 10 O s       :     3.729330  s :     3.729330
      pz      :     1.559269  p :     4.725128
      px      :     1.640711
      py      :     1.525148
      dz2     :     0.002187  d :     0.007531
      dxz     :    -0.002817
      dyz     :     0.002452
      dx2y2   :     0.003113
      dxy     :     0.002597
 11 C s       :     3.021716  s :     3.021716
      pz      :     1.103744  p :     3.291221
      px      :     1.143021
      py      :     1.044456
      dz2     :     0.003697  d :     0.020021
      dxz     :     0.004024
      dyz     :     0.003527
      dx2y2   :     0.006853
      dxy     :     0.001921
 12 C s       :     2.948678  s :     2.948678
      pz      :     0.374700  p :     2.012200
      px      :     0.754175
      py      :     0.883326
      dz2     :     0.007877  d :     0.082110
      dxz     :     0.008648
      dyz     :     0.008874
      dx2y2   :     0.027611
      dxy     :     0.029100
 13 N s       :     3.372064  s :     3.372064
      pz      :     0.595694  p :     2.771439
      px      :     1.061679
      py      :     1.114066
      dz2     :     0.002585  d :     0.024791
      dxz     :     0.002332
      dyz     :     0.003832
      dx2y2   :     0.008531
      dxy     :     0.007512
 14 C s       :     3.063905  s :     3.063905
      pz      :     1.030931  p :     3.045484
      px      :     1.149914
      py      :     0.864640
      dz2     :     0.005191  d :     0.028381
      dxz     :     0.002715
      dyz     :     0.003778
      dx2y2   :     0.008913
      dxy     :     0.007783
 15 C s       :     3.044741  s :     3.044741
      pz      :     1.062043  p :     3.054767
      px      :     0.958346
      py      :     1.034378
      dz2     :     0.006109  d :     0.028413
      dxz     :     0.002594
      dyz     :     0.002860
      dx2y2   :     0.007649
      dxy     :     0.009201
 16 O s       :     3.728102  s :     3.728102
      pz      :     1.549488  p :     4.727999
      px      :     1.503195
      py      :     1.675316
      dz2     :     0.002119  d :     0.007443
      dxz     :    -0.001883
      dyz     :     0.002574
      dx2y2   :     0.001980
      dxy     :     0.002654
 17 H s       :     0.779963  s :     0.779963
      pz      :     0.010895  p :     0.027439
      px      :     0.007550
      py      :     0.008993
 18 H s       :     0.726881  s :     0.726881
      pz      :     0.008146  p :     0.027960
      px      :     0.007555
      py      :     0.012259
 19 H s       :     0.737575  s :     0.737575
      pz      :     0.010078  p :     0.027834
      px      :     0.010807
      py      :     0.006949
 20 H s       :     0.730104  s :     0.730104
      pz      :     0.017173  p :     0.026004
      px      :     0.006012
      py      :     0.002819
 21 H s       :     0.706527  s :     0.706527
      pz      :     0.005356  p :     0.025960
      px      :     0.014308
      py      :     0.006296
 22 H s       :     0.809253  s :     0.809253
      pz      :     0.007574  p :     0.026704
      px      :     0.012318
      py      :     0.006812
 23 H s       :     0.763061  s :     0.763061
      pz      :     0.017604  p :     0.025889
      px      :     0.003725
      py      :     0.004560
 24 H s       :     0.686655  s :     0.686655
      pz      :     0.006574  p :     0.026030
      px      :     0.014042
      py      :     0.005413
 25 H s       :     0.776059  s :     0.776059
      pz      :     0.005042  p :     0.026249
      px      :     0.004177
      py      :     0.017030
 26 H s       :     0.730777  s :     0.730777
      pz      :     0.014009  p :     0.027894
      px      :     0.005451
      py      :     0.008433
 27 H s       :     0.785548  s :     0.785548
      pz      :     0.006662  p :     0.027610
      px      :     0.016619
      py      :     0.004329
 28 H s       :     0.734986  s :     0.734986
      pz      :     0.011734  p :     0.027808
      px      :     0.009946
      py      :     0.006128
 29 H s       :     0.766968  s :     0.766968
      pz      :     0.006118  p :     0.025867
      px      :     0.016113
      py      :     0.003636
 30 H s       :     0.773761  s :     0.773761
      pz      :     0.007518  p :     0.026283
      px      :     0.010371
      py      :     0.008394
 31 H s       :     0.688474  s :     0.688474
      pz      :     0.017421  p :     0.026245
      px      :     0.005665
      py      :     0.003159
 32 H s       :     0.732221  s :     0.732221
      pz      :     0.008999  p :     0.026029
      px      :     0.011681
      py      :     0.005349
 33 H s       :     0.808672  s :     0.808672
      pz      :     0.006289  p :     0.026636
      px      :     0.004667
      py      :     0.015680
 34 H s       :     0.704734  s :     0.704734
      pz      :     0.017120  p :     0.025986
      px      :     0.004504
      py      :     0.004362


                     *******************************
                     * LOEWDIN POPULATION ANALYSIS *
                     *******************************

----------------------
LOEWDIN ATOMIC CHARGES
----------------------
   0 Cl:    1.561853
   1 Sn:  -11.948839
   2 Cl:    2.100053
   3 Cl:    1.623664
   4 Cl:    2.048296
   5 C :   -0.226580
   6 C :    0.748763
   7 N :    1.019806
   8 C :    0.001195
   9 C :   -0.004184
  10 O :   -0.574731
  11 C :   -0.224471
  12 C :    0.749892
  13 N :    1.019529
  14 C :   -0.007958
  15 C :   -0.001038
  16 O :   -0.576365
  17 H :    0.118683
  18 H :    0.164469
  19 H :    0.151040
  20 H :    0.170604
  21 H :    0.194616
  22 H :    0.099270
  23 H :    0.142254
  24 H :    0.197511
  25 H :    0.110146
  26 H :    0.163013
  27 H :    0.114653
  28 H :    0.153621
  29 H :    0.138502
  30 H :    0.112674
  31 H :    0.196377
  32 H :    0.168527
  33 H :    0.099459
  34 H :    0.195695

-------------------------------
LOEWDIN REDUCED ORBITAL CHARGES
-------------------------------
  0 Cls       :     5.886561  s :     5.886561
      pz      :     3.149239  p :     9.442841
      px      :     3.211907
      py      :     3.081695
      dz2     :     0.025055  d :     0.108744
      dxz     :     0.025866
      dyz     :     0.021670
      dx2y2   :     0.016300
      dxy     :     0.019854
  1 Sns       :     4.115094  s :     4.115094
      pz      :     4.186769  p :    12.598639
      px      :     4.188567
      py      :     4.223303
      dz2     :     3.500480  d :    17.235106
      dxz     :     3.295749
      dyz     :     3.498829
      dx2y2   :     3.477825
      dxy     :     3.462223
  2 Cls       :     5.891735  s :     5.891735
      pz      :     2.820205  p :     8.917592
      px      :     3.026270
      py      :     3.071117
      dz2     :     0.010874  d :     0.090620
      dxz     :     0.006388
      dyz     :     0.022021
      dx2y2   :     0.024358
      dxy     :     0.026979
  3 Cls       :     5.889850  s :     5.889850
      pz      :     2.888614  p :     9.378659
      px      :     3.265773
      py      :     3.224272
      dz2     :     0.012889  d :     0.107826
      dxz     :     0.007676
      dyz     :     0.023285
      dx2y2   :     0.031116
      dxy     :     0.032860
  4 Cls       :     5.887879  s :     5.887879
      pz      :     2.999403  p :     8.971520
      px      :     3.248535
      py      :     2.723581
      dz2     :     0.019210  d :     0.092306
      dxz     :     0.024159
      dyz     :     0.014465
      dx2y2   :     0.015408
      dxy     :     0.019063
  5 C s       :     2.864105  s :     2.864105
      pz      :     1.121385  p :     3.313414
      px      :     1.082545
      py      :     1.109483
      dz2     :     0.003104  d :     0.049061
      dxz     :     0.015341
      dyz     :     0.012481
      dx2y2   :     0.002108
      dxy     :     0.016027
  6 C s       :     2.777482  s :     2.777482
      pz      :     0.794698  p :     2.258550
      px      :     0.673824
      py      :     0.790028
      dz2     :     0.039271  d :     0.215206
      dxz     :     0.031167
      dyz     :     0.060019
      dx2y2   :     0.042551
      dxy     :     0.042197
  7 N s       :     3.050588  s :     3.050588
      pz      :     0.955030  p :     2.869437
      px      :     0.830108
      py      :     1.084299
      dz2     :     0.012419  d :     0.060169
      dxz     :     0.010507
      dyz     :     0.013820
      dx2y2   :     0.011844
      dxy     :     0.011579
  8 C s       :     2.849853  s :     2.849853
      pz      :     1.075043  p :     3.084093
      px      :     1.095993
      py      :     0.913057
      dz2     :     0.012665  d :     0.064859
      dxz     :     0.006102
      dyz     :     0.014378
      dx2y2   :     0.018949
      dxy     :     0.012765
  9 C s       :     2.853188  s :     2.853188
      pz      :     1.072551  p :     3.086734
      px      :     0.959360
      py      :     1.054823
      dz2     :     0.015396  d :     0.064263
      dxz     :     0.012067
      dyz     :     0.008456
      dx2y2   :     0.012232
      dxy     :     0.016111
 10 O s       :     3.536268  s :     3.536268
      pz      :     1.689319  p :     5.001890
      px      :     1.722002
      py      :     1.590569
      dz2     :     0.008707  d :     0.036573
      dxz     :     0.008433
      dyz     :     0.006767
      dx2y2   :     0.006969
      dxy     :     0.005697
 11 C s       :     2.863867  s :     2.863867
      pz      :     1.103167  p :     3.311430
      px      :     1.142487
      py      :     1.065777
      dz2     :     0.008754  d :     0.049173
      dxz     :     0.008806
      dyz     :     0.008134
      dx2y2   :     0.018354
      dxy     :     0.005125
 12 C s       :     2.777516  s :     2.777516
      pz      :     0.431938  p :     2.257381
      px      :     0.887164
      py      :     0.938279
      dz2     :     0.017745  d :     0.215212
      dxz     :     0.021975
      dyz     :     0.021797
      dx2y2   :     0.077821
      dxy     :     0.075873
 13 N s       :     3.050967  s :     3.050967
      pz      :     0.566475  p :     2.869380
      px      :     1.148455
      py      :     1.154449
      dz2     :     0.004633  d :     0.060124
      dxz     :     0.004634
      dyz     :     0.007494
      dx2y2   :     0.022618
      dxy     :     0.020746
 14 C s       :     2.853077  s :     2.853077
      pz      :     1.036706  p :     3.090618
      px      :     1.139326
      py      :     0.914586
      dz2     :     0.011911  d :     0.064263
      dxz     :     0.005809
      dyz     :     0.008846
      dx2y2   :     0.021934
      dxy     :     0.015763
 15 C s       :     2.849832  s :     2.849832
      pz      :     1.056060  p :     3.086350
      px      :     0.983457
      py      :     1.046832
      dz2     :     0.014543  d :     0.064856
      dxz     :     0.005538
      dyz     :     0.006138
      dx2y2   :     0.014810
      dxy     :     0.023828
 16 O s       :     3.535950  s :     3.535950
      pz      :     1.671237  p :     5.003905
      px      :     1.625173
      py      :     1.707494
      dz2     :     0.007022  d :     0.036511
      dxz     :     0.009453
      dyz     :     0.004766
      dx2y2   :     0.007613
      dxy     :     0.007656
 17 H s       :     0.797142  s :     0.797142
      pz      :     0.033726  p :     0.084175
      px      :     0.023856
      py      :     0.026594
 18 H s       :     0.751542  s :     0.751542
      pz      :     0.023922  p :     0.083989
      px      :     0.022707
      py      :     0.037360
 19 H s       :     0.764581  s :     0.764581
      pz      :     0.031086  p :     0.084378
      px      :     0.033591
      py      :     0.019701
 20 H s       :     0.750150  s :     0.750150
      pz      :     0.054124  p :     0.079246
      px      :     0.015754
      py      :     0.009367
 21 H s       :     0.726101  s :     0.726101
      pz      :     0.014146  p :     0.079283
      px      :     0.044163
      py      :     0.020974
 22 H s       :     0.820215  s :     0.820215
      pz      :     0.021537  p :     0.080515
      px      :     0.036938
      py      :     0.022040
 23 H s       :     0.778730  s :     0.778730
      pz      :     0.055507  p :     0.079016
      px      :     0.010708
      py      :     0.012801
 24 H s       :     0.722528  s :     0.722528
      pz      :     0.018481  p :     0.079961
      px      :     0.045951
      py      :     0.015529
 25 H s       :     0.809232  s :     0.809232
      pz      :     0.014515  p :     0.080621
      px      :     0.012219
      py      :     0.053887
 26 H s       :     0.753122  s :     0.753122
      pz      :     0.043498  p :     0.083866
      px      :     0.014296
      py      :     0.026071
 27 H s       :     0.801245  s :     0.801245
      pz      :     0.018596  p :     0.084102
      px      :     0.051767
      py      :     0.013739
 28 H s       :     0.762077  s :     0.762077
      pz      :     0.035462  p :     0.084302
      px      :     0.029824
      py      :     0.019016
 29 H s       :     0.782453  s :     0.782453
      pz      :     0.016517  p :     0.079045
      px      :     0.050396
      py      :     0.012132
 30 H s       :     0.806671  s :     0.806671
      pz      :     0.021355  p :     0.080655
      px      :     0.031161
      py      :     0.028139
 31 H s       :     0.723483  s :     0.723483
      pz      :     0.054923  p :     0.080140
      px      :     0.014707
      py      :     0.010510
 32 H s       :     0.752210  s :     0.752210
      pz      :     0.025495  p :     0.079263
      px      :     0.037876
      py      :     0.015891
 33 H s       :     0.820029  s :     0.820029
      pz      :     0.017287  p :     0.080512
      px      :     0.013263
      py      :     0.049962
 34 H s       :     0.724961  s :     0.724961
      pz      :     0.053318  p :     0.079344
      px      :     0.013737
      py      :     0.012289


                      *****************************
                      * MAYER POPULATION ANALYSIS *
                      *****************************

  NA   - Mulliken gross atomic population
  ZA   - Total nuclear charge
  QA   - Mulliken gross atomic charge
  VA   - Mayer's total valence
  BVA  - Mayer's bonded valence
  FA   - Mayer's free valence

  ATOM       NA         ZA         QA         VA         BVA        FA
  0 Cl    15.1016    17.0000     1.8984     2.4926     2.4926    -0.0000
  1 Sn    36.0880    22.0000   -14.0880     1.3991     1.3991    -0.0000
  2 Cl    14.6285    17.0000     2.3715     2.3335     2.3335    -0.0000
  3 Cl    15.0448    17.0000     1.9552     2.4336     2.4336     0.0000
  4 Cl    14.6708    17.0000     2.3292     2.4089     2.4089    -0.0000
  5 C      6.3444     6.0000    -0.3444     4.0232     4.0232     0.0000
  6 C      5.0392     6.0000     0.9608     3.5907     3.5907    -0.0000
  7 N      6.1659     7.0000     0.8341     3.7133     3.7133     0.0000
  8 C      6.1241     6.0000    -0.1241     3.8936     3.8936     0.0000
  9 C      6.1346     6.0000    -0.1346     3.8916     3.8916    -0.0000
 10 O      8.4620     8.0000    -0.4620     1.2807     1.2807     0.0000
 11 C      6.3330     6.0000    -0.3330     4.0203     4.0203    -0.0000
 12 C      5.0430     6.0000     0.9570     3.5971     3.5971    -0.0000
 13 N      6.1683     7.0000     0.8317     3.7153     3.7153     0.0000
 14 C      6.1378     6.0000    -0.1378     3.8919     3.8919    -0.0000
 15 C      6.1279     6.0000    -0.1279     3.8930     3.8930     0.0000
 16 O      8.4635     8.0000    -0.4635     1.2752     1.2752    -0.0000
 17 H      0.8074     1.0000     0.1926     0.9698     0.9698    -0.0000
 18 H      0.7548     1.0000     0.2452     0.9424     0.9424    -0.0000
 19 H      0.7654     1.0000     0.2346     0.9602     0.9602     0.0000
 20 H      0.7561     1.0000     0.2439     0.9503     0.9503     0.0000
 21 H      0.7325     1.0000     0.2675     0.9405     0.9405     0.0000
 22 H      0.8360     1.0000     0.1640     0.9948     0.9948     0.0000
 23 H      0.7889     1.0000     0.2111     0.9694     0.9694    -0.0000
 24 H      0.7127     1.0000     0.2873     0.9278     0.9278    -0.0000
 25 H      0.8023     1.0000     0.1977     0.9605     0.9605    -0.0000
 26 H      0.7587     1.0000     0.2413     0.9465     0.9465     0.0000
 27 H      0.8132     1.0000     0.1868     0.9724     0.9724    -0.0000
 28 H      0.7628     1.0000     0.2372     0.9588     0.9588    -0.0000
 29 H      0.7928     1.0000     0.2072     0.9712     0.9712     0.0000
 30 H      0.8000     1.0000     0.2000     0.9594     0.9594    -0.0000
 31 H      0.7147     1.0000     0.2853     0.9271     0.9271     0.0000
 32 H      0.7582     1.0000     0.2418     0.9516     0.9516     0.0000
 33 H      0.8353     1.0000     0.1647     0.9947     0.9947     0.0000
 34 H      0.7307     1.0000     0.2693     0.9391     0.9391     0.0000

  Mayer bond orders larger than 0.100000
B(  0-Cl,  1-Sn) :   0.5223 B(  0-Cl,  2-Cl) :   0.2602 B(  0-Cl,  3-Cl) :   0.2627 
B(  0-Cl,  4-Cl) :   1.1569 B(  0-Cl, 10-O ) :   0.1328 B(  1-Sn,  2-Cl) :   0.5261 
B(  1-Sn,  3-Cl) :   0.5006 B(  1-Sn,  4-Cl) :   0.5543 B(  1-Sn, 10-O ) :  -0.3835 
B(  1-Sn, 16-O ) :  -0.3870 B(  2-Cl,  3-Cl) :   1.1048 B(  2-Cl,  4-Cl) :   0.1780 
B(  2-Cl, 10-O ) :   0.1011 B(  2-Cl, 16-O ) :   0.1120 B(  3-Cl,  4-Cl) :   0.2709 
B(  3-Cl, 16-O ) :   0.1343 B(  4-Cl, 10-O ) :   0.1107 B(  4-Cl, 16-O ) :   0.1008 
B(  5-C ,  6-C ) :   1.2464 B(  5-C , 17-H ) :   0.8903 B(  5-C , 18-H ) :   0.8374 
B(  5-C , 19-H ) :   0.8692 B(  6-C ,  7-N ) :   1.0241 B(  6-C , 10-O ) :   1.1339 
B(  7-N ,  8-C ) :   1.1902 B(  7-N ,  9-C ) :   1.1589 B(  8-C , 20-H ) :   0.8370 
B(  8-C , 21-H ) :   0.8003 B(  8-C , 22-H ) :   0.9287 B(  9-C , 23-H ) :   0.8843 
B(  9-C , 24-H ) :   0.7749 B(  9-C , 25-H ) :   0.9068 B( 11-C , 12-C ) :   1.2455 
B( 11-C , 26-H ) :   0.8392 B( 11-C , 27-H ) :   0.8918 B( 11-C , 28-H ) :   0.8660 
B( 12-C , 13-N ) :   1.0230 B( 12-C , 16-O ) :   1.1334 B( 13-N , 14-C ) :   1.1621 
B( 13-N , 15-C ) :   1.1900 B( 14-C , 29-H ) :   0.8908 B( 14-C , 30-H ) :   0.9029 
B( 14-C , 31-H ) :   0.7795 B( 15-C , 32-H ) :   0.8407 B( 15-C , 33-H ) :   0.9287 
B( 15-C , 34-H ) :   0.7991 

-------
TIMINGS
-------

Total SCF time: 0 days 0 hours 0 min 2 sec 

Total time                  ....       2.639 sec
Sum of individual times     ....       2.476 sec  ( 93.8%)

Fock matrix formation       ....       0.000 sec  (  0.0%)
Diagonalization             ....       0.000 sec  (  0.0%)
Density matrix formation    ....       0.000 sec  (  0.0%)
Population analysis         ....       0.013 sec  (  0.5%)
Initial guess               ....       1.664 sec  ( 63.0%)
Orbital Transformation      ....       0.000 sec  (  0.0%)
Orbital Orthonormalization  ....       0.000 sec  (  0.0%)
DIIS solution               ....       0.000 sec  (  0.0%)
SOSCF solution              ....       0.000 sec  (  0.0%)

Maximum memory used throughout the entire SCF-calculation: 73.8 MB

-------------------------   --------------------
FINAL SINGLE POINT ENERGY         0.000000000000
-------------------------   --------------------


                            ***************************************
                            *     ORCA property calculations      *
                            ***************************************

                                    ---------------------
                                    Active property flags
                                    ---------------------
   (+) Dipole Moment


------------------------------------------------------------------------------
                       ORCA ELECTRIC PROPERTIES CALCULATION
------------------------------------------------------------------------------

Dipole Moment Calculation                       ... on
Quadrupole Moment Calculation                   ... off
Polarizability Calculation                      ... off
GBWName                                         ... START_a007_b027_2.gbw
Electron density                                ... START_a007_b027_2.scfp
The origin for moment calculation is the CENTER OF MASS  = ( 3.125198, -0.359536  4.104574)

-------------
DIPOLE MOMENT
-------------
                                X             Y             Z
Electronic contribution:     25.03780     -11.06624      18.74886
Nuclear contribution   :    -40.87415      17.89460     -30.90628
                        -----------------------------------------
Total Dipole Moment    :    -15.83634       6.82836     -12.15742
                        -----------------------------------------
Magnitude (a.u.)       :     21.10022
Magnitude (Debye)      :     53.63249



--------------------
Rotational spectrum 
--------------------
 
Rotational constants in cm-1:     0.013400     0.006707     0.005973 
Rotational constants in MHz :   401.717443   201.074892   179.055447 

 Dipole components along the rotational axes: 
x,y,z [a.u.] :    -0.076682    21.099157    -0.197000 
x,y,z [Debye]:    -0.194911    53.629796    -0.500733 

 

Timings for individual modules:

Sum of individual times         ...        3.356 sec (=   0.056 min)
GTO integral calculation        ...        0.701 sec (=   0.012 min)  20.9 %
SCF iterations                  ...        2.654 sec (=   0.044 min)  79.1 %
                             ****ORCA TERMINATED NORMALLY****
TOTAL RUN TIME: 0 days 0 hours 0 minutes 3 seconds 502 msec
