
                                 *****************
                                 * O   R   C   A *
                                 *****************

                                            #,                                       
                                            ###                                      
                                            ####                                     
                                            #####                                    
                                            ######                                   
                                           ########,                                 
                                     ,,################,,,,,                         
                               ,,#################################,,                 
                          ,,##########################################,,             
                       ,#########################################, ''#####,          
                    ,#############################################,,   '####,        
                  ,##################################################,,,,####,       
                ,###########''''           ''''###############################       
              ,#####''   ,,,,##########,,,,          '''####'''          '####       
            ,##' ,,,,###########################,,,                        '##       
           ' ,,###''''                  '''############,,,                           
         ,,##''                                '''############,,,,        ,,,,,,###''
      ,#''                                            '''#######################'''  
     '                                                          ''''####''''         
             ,#######,   #######,   ,#######,      ##                                
            ,#'     '#,  ##    ##  ,#'     '#,    #''#        ######   ,####,        
            ##       ##  ##   ,#'  ##            #'  '#       #        #'  '#        
            ##       ##  #######   ##           ,######,      #####,   #    #        
            '#,     ,#'  ##    ##  '#,     ,#' ,#      #,         ##   #,  ,#        
             '#######'   ##     ##  '#######'  #'      '#     #####' # '####'        



                  #######################################################
                  #                        -***-                        #
                  #          Department of theory and spectroscopy      #
                  #    Directorship and core code : Frank Neese         #
                  #        Max Planck Institute fuer Kohlenforschung    #
                  #                Kaiser Wilhelm Platz 1               #
                  #                 D-45470 Muelheim/Ruhr               #
                  #                      Germany                        #
                  #                                                     #
                  #                  All rights reserved                #
                  #                        -***-                        #
                  #######################################################


                         Program Version 5.0.2 -  RELEASE  -


 With contributions from (in alphabetic order):
   Daniel Aravena         : Magnetic Suceptibility
   Michael Atanasov       : Ab Initio Ligand Field Theory (pilot matlab implementation)
   Alexander A. Auer      : GIAO ZORA, VPT2 properties, NMR spectrum
   Ute Becker             : Parallelization
   Giovanni Bistoni       : ED, misc. LED, open-shell LED, HFLD
   Martin Brehm           : Molecular dynamics
   Dmytro Bykov           : SCF Hessian
   Vijay G. Chilkuri      : MRCI spin determinant printing, contributions to CSF-ICE
   Dipayan Datta          : RHF DLPNO-CCSD density
   Achintya Kumar Dutta   : EOM-CC, STEOM-CC
   Dmitry Ganyushin       : Spin-Orbit,Spin-Spin,Magnetic field MRCI
   Miquel Garcia          : C-PCM and meta-GGA Hessian, CC/C-PCM, Gaussian charge scheme
   Yang Guo               : DLPNO-NEVPT2, F12-NEVPT2, CIM, IAO-localization
   Andreas Hansen         : Spin unrestricted coupled pair/coupled cluster methods
   Benjamin Helmich-Paris : MC-RPA, TRAH-SCF, COSX integrals
   Lee Huntington         : MR-EOM, pCC
   Robert Izsak           : Overlap fitted RIJCOSX, COSX-SCS-MP3, EOM
   Marcus Kettner         : VPT2
   Christian Kollmar      : KDIIS, OOCD, Brueckner-CCSD(T), CCSD density, CASPT2, CASPT2-K
   Simone Kossmann        : Meta GGA functionals, TD-DFT gradient, OOMP2, MP2 Hessian
   Martin Krupicka        : Initial AUTO-CI
   Lucas Lang             : DCDCAS
   Marvin Lechner         : AUTO-CI (C++ implementation), FIC-MRCC
   Dagmar Lenk            : GEPOL surface, SMD
   Dimitrios Liakos       : Extrapolation schemes; Compound Job, initial MDCI parallelization
   Dimitrios Manganas     : Further ROCIS development; embedding schemes
   Dimitrios Pantazis     : SARC Basis sets
   Anastasios Papadopoulos: AUTO-CI, single reference methods and gradients
   Taras Petrenko         : DFT Hessian,TD-DFT gradient, ASA, ECA, R-Raman, ABS, FL, XAS/XES, NRVS
   Peter Pinski           : DLPNO-MP2, DLPNO-MP2 Gradient
   Christoph Reimann      : Effective Core Potentials
   Marius Retegan         : Local ZFS, SOC
   Christoph Riplinger    : Optimizer, TS searches, QM/MM, DLPNO-CCSD(T), (RO)-DLPNO pert. Triples
   Tobias Risthaus        : Range-separated hybrids, TD-DFT gradient, RPA, STAB
   Michael Roemelt        : Original ROCIS implementation
   Masaaki Saitow         : Open-shell DLPNO-CCSD energy and density
   Barbara Sandhoefer     : DKH picture change effects
   Avijit Sen             : IP-ROCIS
   Kantharuban Sivalingam : CASSCF convergence, NEVPT2, FIC-MRCI
   Bernardo de Souza      : ESD, SOC TD-DFT
   Georgi Stoychev        : AutoAux, RI-MP2 NMR, DLPNO-MP2 response
   Willem Van den Heuvel  : Paramagnetic NMR
   Boris Wezisla          : Elementary symmetry handling
   Frank Wennmohs         : Technical directorship


 We gratefully acknowledge several colleagues who have allowed us to
 interface, adapt or use parts of their codes:
   Stefan Grimme, W. Hujo, H. Kruse, P. Pracht,  : VdW corrections, initial TS optimization,
                  C. Bannwarth, S. Ehlert          DFT functionals, gCP, sTDA/sTD-DF
   Ed Valeev, F. Pavosevic, A. Kumar             : LibInt (2-el integral package), F12 methods
   Garnet Chan, S. Sharma, J. Yang, R. Olivares  : DMRG
   Ulf Ekstrom                                   : XCFun DFT Library
   Mihaly Kallay                                 : mrcc  (arbitrary order and MRCC methods)
   Jiri Pittner, Ondrej Demel                    : Mk-CCSD
   Frank Weinhold                                : gennbo (NPA and NBO analysis)
   Christopher J. Cramer and Donald G. Truhlar   : smd solvation model
   Lars Goerigk                                  : TD-DFT with DH, B97 family of functionals
   V. Asgeirsson, H. Jonsson                     : NEB implementation
   FAccTs GmbH                                   : IRC, NEB, NEB-TS, DLPNO-Multilevel, CI-OPT
                                                   MM, QMMM, 2- and 3-layer-ONIOM, Crystal-QMMM,
                                                   LR-CPCM, SF, NACMEs, symmetry and pop. for TD-DFT,
                                                   nearIR, NL-DFT gradient (VV10), updates on ESD,
                                                   ML-optimized integration grids
   S Lehtola, MJT Oliveira, MAL Marques          : LibXC Library
   Liviu Ungur et al                             : ANISO software


 Your calculation uses the libint2 library for the computation of 2-el integrals
 For citations please refer to: http://libint.valeyev.net

 Your ORCA version has been built with support for libXC version: 5.1.0
 For citations please refer to: https://tddft.org/programs/libxc/

 This ORCA versions uses:
   CBLAS   interface :  Fast vector & matrix operations
   LAPACKE interface :  Fast linear algebra routines
   SCALAPACK package :  Parallel linear algebra routines
   Shared memory     :  Shared parallel matrices
   BLAS/LAPACK       :  OpenBLAS 0.3.15  USE64BITINT DYNAMIC_ARCH NO_AFFINITY SkylakeX SINGLE_THREADED
        Core in use  :  SkylakeX
   Copyright (c) 2011-2014, The OpenBLAS Project


================================================================================

----- Orbital basis set information -----
Your calculation utilizes the basis: def2-SVP
   F. Weigend and R. Ahlrichs, Phys. Chem. Chem. Phys. 7, 3297 (2005).

================================================================================
                                        WARNINGS
                       Please study these warnings very carefully!
================================================================================


INFO   : the flag for use of the SHARK integral package has been found!

================================================================================
                                       INPUT FILE
================================================================================
NAME = START_a003_b004.inp
|  1> !HF  DEF2-SVP 
|  2> %maxcore 20
|  3> %pal nprocs = 1  end
|  4> %scf
|  5> MAXITER 0
|  6> end
|  7> %output XYZFILE 1 end
|  8> * xyz 0 1
|  9> C 1.892579 0.258904 -1.385205
| 10> B 1.228694 -0.082757 0.032658
| 11> C 0.795862 1.150319 0.972912
| 12> C 0.815142 2.48225 0.55747
| 13> C 0.336589 3.507994 1.361356
| 14> C -0.177516 3.225709 2.61806
| 15> C -0.201731 1.911541 3.062764
| 16> C 0.279911 0.896615 2.248952
| 17> C 2.043216 -1.257762 0.775771
| 18> C 2.844852 -0.999829 1.888335
| 19> C 3.596657 -1.997994 2.495752
| 20> C 3.560118 -3.293125 2.005666
| 21> C 2.779051 -3.574862 0.892945
| 22> C 2.04419 -2.567964 0.286976
| 23> C 3.014174 1.093585 -1.409997
| 24> C 3.683428 1.390192 -2.586931
| 25> C 3.253316 0.84757 -3.789485
| 26> C 2.159215 -0.002262 -3.791838
| 27> C 1.496181 -0.291805 -2.605726
| 28> O -0.215371 -0.8683 -0.284104
| 29> C -1.390626 -0.49406 -0.297775
| 30> C -2.430181 -1.49705 -0.062499
| 31> C -3.764829 -1.248123 -0.389843
| 32> C -4.725991 -2.217971 -0.163767
| 33> C -4.363056 -3.434641 0.395208
| 34> C -3.036615 -3.688953 0.724026
| 35> C -2.069548 -2.730813 0.49186
| 36> C -1.766631 0.914224 -0.550467
| 37> C -1.355756 1.554043 -1.71266
| 38> C -1.750281 2.868916 -1.905316
| 39> N -2.466614 3.556763 -1.029855
| 40> C -2.833255 2.943638 0.085219
| 41> C -2.53718 1.619194 0.364705
| 42> H 1.197623 2.727716 -0.425648
| 43> H 0.356094 4.528692 1.000764
| 44> H -0.55193 4.02342 3.247088
| 45> H -0.590315 1.67841 4.046611
| 46> H 0.256918 -0.12273 2.619869
| 47> H 2.886557 0.003814 2.29476
| 48> H 4.209516 -1.761519 3.356695
| 49> H 4.139754 -4.075082 2.479523
| 50> H 2.75305 -4.579989 0.490164
| 51> H 1.467436 -2.812712 -0.598412
| 52> H 3.379706 1.517792 -0.481378
| 53> H 4.54598 2.04455 -2.565422
| 54> H 3.771877 1.076257 -4.711531
| 55> H 1.822738 -0.448876 -4.719436
| 56> H 0.657428 -0.978962 -2.648648
| 57> H -4.04999 -0.3058 -0.837467
| 58> H -5.757232 -2.025694 -0.425765
| 59> H -5.116552 -4.189881 0.575945
| 60> H -2.758972 -4.637091 1.163648
| 61> H -1.036874 -2.92524 0.751721
| 62> H -0.737985 1.057182 -2.447481
| 63> H -1.459695 3.391885 -2.809081
| 64> H -3.399396 3.532873 0.796979
| 65> H -2.858981 1.170449 1.29407
| 66> *
| 67> 
| 68>                          ****END OF INPUT****
================================================================================

                       ****************************
                       * Single Point Calculation *
                       ****************************

---------------------------------
CARTESIAN COORDINATES (ANGSTROEM)
---------------------------------
  C      1.892579    0.258904   -1.385205
  B      1.228694   -0.082757    0.032658
  C      0.795862    1.150319    0.972912
  C      0.815142    2.482250    0.557470
  C      0.336589    3.507994    1.361356
  C     -0.177516    3.225709    2.618060
  C     -0.201731    1.911541    3.062764
  C      0.279911    0.896615    2.248952
  C      2.043216   -1.257762    0.775771
  C      2.844852   -0.999829    1.888335
  C      3.596657   -1.997994    2.495752
  C      3.560118   -3.293125    2.005666
  C      2.779051   -3.574862    0.892945
  C      2.044190   -2.567964    0.286976
  C      3.014174    1.093585   -1.409997
  C      3.683428    1.390192   -2.586931
  C      3.253316    0.847570   -3.789485
  C      2.159215   -0.002262   -3.791838
  C      1.496181   -0.291805   -2.605726
  O     -0.215371   -0.868300   -0.284104
  C     -1.390626   -0.494060   -0.297775
  C     -2.430181   -1.497050   -0.062499
  C     -3.764829   -1.248123   -0.389843
  C     -4.725991   -2.217971   -0.163767
  C     -4.363056   -3.434641    0.395208
  C     -3.036615   -3.688953    0.724026
  C     -2.069548   -2.730813    0.491860
  C     -1.766631    0.914224   -0.550467
  C     -1.355756    1.554043   -1.712660
  C     -1.750281    2.868916   -1.905316
  N     -2.466614    3.556763   -1.029855
  C     -2.833255    2.943638    0.085219
  C     -2.537180    1.619194    0.364705
  H      1.197623    2.727716   -0.425648
  H      0.356094    4.528692    1.000764
  H     -0.551930    4.023420    3.247088
  H     -0.590315    1.678410    4.046611
  H      0.256918   -0.122730    2.619869
  H      2.886557    0.003814    2.294760
  H      4.209516   -1.761519    3.356695
  H      4.139754   -4.075082    2.479523
  H      2.753050   -4.579989    0.490164
  H      1.467436   -2.812712   -0.598412
  H      3.379706    1.517792   -0.481378
  H      4.545980    2.044550   -2.565422
  H      3.771877    1.076257   -4.711531
  H      1.822738   -0.448876   -4.719436
  H      0.657428   -0.978962   -2.648648
  H     -4.049990   -0.305800   -0.837467
  H     -5.757232   -2.025694   -0.425765
  H     -5.116552   -4.189881    0.575945
  H     -2.758972   -4.637091    1.163648
  H     -1.036874   -2.925240    0.751721
  H     -0.737985    1.057182   -2.447481
  H     -1.459695    3.391885   -2.809081
  H     -3.399396    3.532873    0.796979
  H     -2.858981    1.170449    1.294070

----------------------------
CARTESIAN COORDINATES (A.U.)
----------------------------
  NO LB      ZA    FRAG     MASS         X           Y           Z
   0 C     6.0000    0    12.011    3.576456    0.489258   -2.617658
   1 B     5.0000    0    10.810    2.321895   -0.156388    0.061715
   2 C     6.0000    0    12.011    1.503961    2.173788    1.838537
   3 C     6.0000    0    12.011    1.540395    4.690773    1.053466
   4 C     6.0000    0    12.011    0.636061    6.629148    2.572590
   5 C     6.0000    0    12.011   -0.335457    6.095707    4.947416
   6 C     6.0000    0    12.011   -0.381216    3.612289    5.787785
   7 C     6.0000    0    12.011    0.528955    1.694357    4.249903
   8 C     6.0000    0    12.011    3.861119   -2.376826    1.465995
   9 C     6.0000    0    12.011    5.375991   -1.889403    3.568436
  10 C     6.0000    0    12.011    6.796697   -3.775661    4.716288
  11 C     6.0000    0    12.011    6.727648   -6.223104    3.790159
  12 C     6.0000    0    12.011    5.251645   -6.755510    1.687422
  13 C     6.0000    0    12.011    3.862959   -4.852749    0.542306
  14 C     6.0000    0    12.011    5.695963    2.066576   -2.664508
  15 C     6.0000    0    12.011    6.960670    2.627082   -4.888591
  16 C     6.0000    0    12.011    6.147876    1.601675   -7.161089
  17 C     6.0000    0    12.011    4.080325   -0.004275   -7.165535
  18 C     6.0000    0    12.011    2.827372   -0.551432   -4.924109
  19 O     8.0000    0    15.999   -0.406992   -1.640849   -0.536879
  20 C     6.0000    0    12.011   -2.627902   -0.933638   -0.562713
  21 C     6.0000    0    12.011   -4.592377   -2.829015   -0.118106
  22 C     6.0000    0    12.011   -7.114496   -2.358611   -0.736697
  23 C     6.0000    0    12.011   -8.930829   -4.191358   -0.309475
  24 C     6.0000    0    12.011   -8.244981   -6.490531    0.746835
  25 C     6.0000    0    12.011   -5.738371   -6.971111    1.368211
  26 C     6.0000    0    12.011   -3.910879   -5.160489    0.929481
  27 C     6.0000    0    12.011   -3.338449    1.727633   -1.040232
  28 C     6.0000    0    12.011   -2.562008    2.936716   -3.236458
  29 C     6.0000    0    12.011   -3.307552    5.421466   -3.600525
  30 N     7.0000    0    14.007   -4.661225    6.721308   -1.946144
  31 C     6.0000    0    12.011   -5.354076    5.562670    0.161041
  32 C     6.0000    0    12.011   -4.794575    3.059833    0.689193
  33 H     1.0000    0     1.008    2.263179    5.154636   -0.804358
  34 H     1.0000    0     1.008    0.672920    8.557988    1.891170
  35 H     1.0000    0     1.008   -1.042997    7.603162    6.136107
  36 H     1.0000    0     1.008   -1.115534    3.171735    7.646987
  37 H     1.0000    0     1.008    0.485505   -0.231926    4.950835
  38 H     1.0000    0     1.008    5.454802    0.007207    4.336468
  39 H     1.0000    0     1.008    7.954832   -3.328788    6.343234
  40 H     1.0000    0     1.008    7.823001   -7.700789    4.685619
  41 H     1.0000    0     1.008    5.202511   -8.654925    0.926276
  42 H     1.0000    0     1.008    2.773052   -5.315255   -1.130835
  43 H     1.0000    0     1.008    6.386719    2.868211   -0.909673
  44 H     1.0000    0     1.008    8.590657    3.863640   -4.847945
  45 H     1.0000    0     1.008    7.127815    2.033831   -8.903503
  46 H     1.0000    0     1.008    3.444476   -0.848253   -8.918442
  47 H     1.0000    0     1.008    1.242359   -1.849970   -5.005219
  48 H     1.0000    0     1.008   -7.653372   -0.577878   -1.582583
  49 H     1.0000    0     1.008  -10.879592   -3.828007   -0.804579
  50 H     1.0000    0     1.008   -9.668882   -7.917728    1.088378
  51 H     1.0000    0     1.008   -5.213701   -8.762832    2.198976
  52 H     1.0000    0     1.008   -1.959408   -5.527902    1.420547
  53 H     1.0000    0     1.008   -1.394590    1.997784   -4.625069
  54 H     1.0000    0     1.008   -2.758424    6.409734   -5.308394
  55 H     1.0000    0     1.008   -6.423927    6.676162    1.506072
  56 H     1.0000    0     1.008   -5.402691    2.211828    2.445438

--------------------------------
INTERNAL COORDINATES (ANGSTROEM)
--------------------------------
 C      0   0   0     0.000000000000     0.00000000     0.00000000
 B      1   0   0     1.602439084307     0.00000000     0.00000000
 C      2   1   0     1.609937125019   117.69990906     0.00000000
 C      3   2   1     1.395350838508   123.60772810     8.13543684
 C      4   3   2     1.388307036769   121.87728756   174.90027686
 C      5   4   3     1.386828654112   120.13923491     0.13321862
 C      6   5   4     1.387582626752   119.31851879     0.30310698
 C      7   6   5     1.387207184592   119.92381380   359.70354507
 C      2   1   3     1.611303748298   110.73936260   224.58835923
 C      9   2   1     1.395330915260   121.55691975   107.73491649
 C     10   9   2     1.389424174663   121.77885739   182.96948194
 C     11  10   9     1.385237774925   120.18084414   359.65827028
 C     12  11  10     1.388376540964   119.21664187     0.85062990
 C     13  12  11     1.386024062088   120.08282455   359.82031337
 C      1   2   3     1.398314113156   118.37681330    54.52333025
 C     15   1   2     1.386019577539   122.01224012   177.07094724
 C     16  15   1     1.387649483963   120.16774496   359.52887069
 C     17  16  15     1.385379717996   119.08675103   359.29919556
 C     18  17  16     1.389356293594   120.21696006     0.72345703
 O      2   1   3     1.674138492992   106.85735221   116.10023668
 C     20   2   1     1.233477518590   132.96808446   259.91805249
 C     21  20   2     1.463563573713   117.84348261   205.19183556
 C     22  21  20     1.396568662676   121.26302109   196.46370984
 C     23  22  21     1.384033197262   120.03212043   179.61250612
 C     24  23  22     1.387249348081   119.91447373     0.35801522
 C     25  24  23     1.390050933221   120.35928574   359.67066375
 C     26  25  24     1.380996702981   120.10077575   359.80980284
 C     21  20   2     1.479356897961   122.20091564    25.61354232
 C     28  21  20     1.388840951166   120.41746205    56.51207650
 C     29  28  21     1.386238549489   117.97393614   179.24312341
 N     30  29  28     1.323895171386   123.70413783     1.75752626
 C     31  30  29     1.324287700608   117.77883876   359.38040242
 C     32  31  30     1.385613488299   123.58866971   358.28607752
 H      4   3   2     1.083081841063   119.43716576   355.95510970
 H      5   4   3     1.082696376041   119.83324914   180.76654859
 H      6   5   4     1.082684121848   120.31155218   180.03148288
 H      7   6   5     1.083190891591   120.07904900   179.31496580
 H      8   7   6     1.084975726900   118.65014190   179.61480789
 H     10   9   2     1.083614257519   119.49712854     2.98399123
 H     11  10   9     1.082930943669   119.79511699   179.87368648
 H     12  11  10     1.082577987396   120.42057308   180.36467527
 H     13  12  11     1.083138436254   119.98991991   179.07090803
 H     14  13  12     1.084646795304   118.35180638   178.17285117
 H     15   1   2     1.084388523101   119.25562880   357.56025280
 H     16  15   1     1.082886412302   119.80570891   179.73780943
 H     17  16  15     1.082299441377   120.47487894   179.96689175
 H     18  17  16     1.083106128747   119.98292483   181.16645742
 H     19  18  17     1.085142219132   117.84406755   181.29956686
 H     23  22  21     1.081506670172   120.28455983     0.75677862
 H     24  23  22     1.081236050460   119.87829438   180.50937172
 H     25  24  23     1.082039529216   119.81971643   179.68931019
 H     26  25  24     1.081350454467   120.10522616   179.72566870
 H     27  26  25     1.082471795441   120.20382694   179.70149143
 H     29  28  21     1.080959649480   121.74705558   358.57344516
 H     30  29  28     1.083848685741   119.81846988   180.96645192
 H     32  31  30     1.083658532337   116.48363905   178.64727364
 H     33  32  31     1.081039898362   120.43615774   179.76834208

---------------------------
INTERNAL COORDINATES (A.U.)
---------------------------
 C      0   0   0     0.000000000000     0.00000000     0.00000000
 B      1   0   0     3.028171015632     0.00000000     0.00000000
 C      2   1   0     3.042340259119   117.69990906     0.00000000
 C      3   2   1     2.636830945518   123.60772810     8.13543684
 C      4   3   2     2.623520089288   121.87728756   174.90027686
 C      5   4   3     2.620726350946   120.13923491     0.13321862
 C      6   5   4     2.622151152749   119.31851879     0.30310698
 C      7   6   5     2.621441669887   119.92381380   359.70354507
 C      2   1   3     3.044922802843   110.73936260   224.58835923
 C      9   2   1     2.636793296036   121.55691975   107.73491649
 C     10   9   2     2.625631173963   121.77885739   182.96948194
 C     11  10   9     2.617720024970   120.18084414   359.65827028
 C     12  11  10     2.623651433183   119.21664187     0.85062990
 C     13  12  11     2.619205892371   120.08282455   359.82031337
 C      1   2   3     2.642430723061   118.37681330    54.52333025
 C     15   1   2     2.619197417802   122.01224012   177.07094724
 C     16  15   1     2.622277494568   120.16774496   359.52887069
 C     17  16  15     2.617988258501   119.08675103   359.29919556
 C     18  17  16     2.625502897332   120.21696006     0.72345703
 O      2   1   3     3.163663262011   106.85735221   116.10023668
 C     20   2   1     2.330934702483   132.96808446   259.91805249
 C     21  20   2     2.765734333902   117.84348261   205.19183556
 C     22  21  20     2.639132299675   121.26302109   196.46370984
 C     23  22  21     2.615443703081   120.03212043   179.61250612
 C     24  23  22     2.621521347333   119.91447373     0.35801522
 C     25  24  23     2.626815575990   120.35928574   359.67066375
 C     26  25  24     2.609705560483   120.10077575   359.80980284
 C     21  20   2     2.795579391474   122.20091564    25.61354232
 C     28  21  20     2.624529041278   120.41746205    56.51207650
 C     29  28  21     2.619611214819   117.97393614   179.24312341
 N     30  29  28     2.501799303940   123.70413783     1.75752626
 C     31  30  29     2.502541076670   117.77883876   359.38040242
 C     32  31  30     2.618430020353   123.58866971   358.28607752
 H      4   3   2     2.046728060233   119.43716576   355.95510970
 H      5   4   3     2.045999636907   119.83324914   180.76654859
 H      6   5   4     2.045976479837   120.31155218   180.03148288
 H      7   6   5     2.046934135865   120.07904900   179.31496580
 H      8   7   6     2.050306985794   118.65014190   179.61480789
 H     10   9   2     2.047734181524   119.49712854     2.98399123
 H     11  10   9     2.046442905483   119.79511699   179.87368648
 H     12  11  10     2.045775914790   120.42057308   180.36467527
 H     13  12  11     2.046835009644   119.98991991   179.07090803
 H     14  13  12     2.049685395161   118.35180638   178.17285117
 H     15   1   2     2.049197331429   119.25562880   357.56025280
 H     16  15   1     2.046358753396   119.80570891   179.73780943
 H     17  16  15     2.045249539099   120.47487894   179.96689175
 H     18  17  16     2.046773957303   119.98292483   181.16645742
 H     19  18  17     2.050621610514   117.84406755   181.29956686
 H     23  22  21     2.043751418634   120.28455983     0.75677862
 H     24  23  22     2.043240021492   119.87829438   180.50937172
 H     25  24  23     2.044758376294   119.81971643   179.68931019
 H     26  25  24     2.043456213735   120.10522616   179.72566870
 H     27  26  25     2.045575241078   120.20382694   179.70149143
 H     29  28  21     2.042717699336   121.74705558   358.57344516
 H     30  29  28     2.048177186661   119.81846988   180.96645192
 H     32  31  30     2.047817848803   116.48363905   178.64727364
 H     33  32  31     2.042869347747   120.43615774   179.76834208

---------------------
BASIS SET INFORMATION
---------------------
There are 5 groups of distinct atoms

 Group   1 Type C   : 7s4p1d contracted to 3s2p1d pattern {511/31/1}
 Group   2 Type B   : 7s4p1d contracted to 3s2p1d pattern {511/31/1}
 Group   3 Type O   : 7s4p1d contracted to 3s2p1d pattern {511/31/1}
 Group   4 Type N   : 7s4p1d contracted to 3s2p1d pattern {511/31/1}
 Group   5 Type H   : 4s1p contracted to 2s1p pattern {31/1}

Atom   0C    basis set group =>   1
Atom   1B    basis set group =>   2
Atom   2C    basis set group =>   1
Atom   3C    basis set group =>   1
Atom   4C    basis set group =>   1
Atom   5C    basis set group =>   1
Atom   6C    basis set group =>   1
Atom   7C    basis set group =>   1
Atom   8C    basis set group =>   1
Atom   9C    basis set group =>   1
Atom  10C    basis set group =>   1
Atom  11C    basis set group =>   1
Atom  12C    basis set group =>   1
Atom  13C    basis set group =>   1
Atom  14C    basis set group =>   1
Atom  15C    basis set group =>   1
Atom  16C    basis set group =>   1
Atom  17C    basis set group =>   1
Atom  18C    basis set group =>   1
Atom  19O    basis set group =>   3
Atom  20C    basis set group =>   1
Atom  21C    basis set group =>   1
Atom  22C    basis set group =>   1
Atom  23C    basis set group =>   1
Atom  24C    basis set group =>   1
Atom  25C    basis set group =>   1
Atom  26C    basis set group =>   1
Atom  27C    basis set group =>   1
Atom  28C    basis set group =>   1
Atom  29C    basis set group =>   1
Atom  30N    basis set group =>   4
Atom  31C    basis set group =>   1
Atom  32C    basis set group =>   1
Atom  33H    basis set group =>   5
Atom  34H    basis set group =>   5
Atom  35H    basis set group =>   5
Atom  36H    basis set group =>   5
Atom  37H    basis set group =>   5
Atom  38H    basis set group =>   5
Atom  39H    basis set group =>   5
Atom  40H    basis set group =>   5
Atom  41H    basis set group =>   5
Atom  42H    basis set group =>   5
Atom  43H    basis set group =>   5
Atom  44H    basis set group =>   5
Atom  45H    basis set group =>   5
Atom  46H    basis set group =>   5
Atom  47H    basis set group =>   5
Atom  48H    basis set group =>   5
Atom  49H    basis set group =>   5
Atom  50H    basis set group =>   5
Atom  51H    basis set group =>   5
Atom  52H    basis set group =>   5
Atom  53H    basis set group =>   5
Atom  54H    basis set group =>   5
Atom  55H    basis set group =>   5
Atom  56H    basis set group =>   5
------------------------------------------------------------------------------
                           ORCA GTO INTEGRAL CALCULATION
------------------------------------------------------------------------------
------------------------------------------------------------------------------
                   ___                                                        
                  /   \      - P O W E R E D   B Y -                         
                 /     \                                                     
                 |  |  |   _    _      __       _____    __    __             
                 |  |  |  | |  | |    /  \     |  _  \  |  |  /  |          
                  \  \/   | |  | |   /    \    | | | |  |  | /  /          
                 / \  \   | |__| |  /  /\  \   | |_| |  |  |/  /          
                |  |  |   |  __  | /  /__\  \  |    /   |      \           
                |  |  |   | |  | | |   __   |  |    \   |  |\   \          
                \     /   | |  | | |  |  |  |  | |\  \  |  | \   \       
                 \___/    |_|  |_| |__|  |__|  |_| \__\ |__|  \__/        
                                                                              
                      - O R C A' S   B I G   F R I E N D -                    
                                      &                                       
                       - I N T E G R A L  F E E D E R -                       
                                                                              
 v1 FN, 2020, v2 2021                                                         
------------------------------------------------------------------------------


Reading SHARK input file START_a003_b004.SHARKINP.tmp ... ok
----------------------
SHARK INTEGRAL PACKAGE
----------------------

Number of atoms                             ...     57
Number of basis functions                   ...    582
Number of shells                            ...    270
Maximum angular momentum                    ...      2
Integral batch strategy                     ... SHARK/LIBINT Hybrid
RI-J (if used) integral strategy            ... SPLIT-RIJ (Revised 2003 algorithm where possible)
Printlevel                                  ...      1
Contraction scheme used                     ... SEGMENTED contraction
Coulomb Range Separation                    ... NOT USED
Exchange Range Separation                   ... NOT USED
Finite Nucleus Model                        ... NOT USED
Auxiliary Coulomb fitting basis             ... NOT available
Auxiliary J/K fitting basis                 ... NOT available
Auxiliary Correlation fitting basis         ... NOT available
Auxiliary 'external' fitting basis          ... NOT available
Integral threshold                          ...     1.000000e-10
Primitive cut-off                           ...     1.000000e-11
Primitive pair pre-selection threshold      ...     1.000000e-11

Calculating pre-screening integrals         ... done (  0.1 sec) Dimension = 270
Organizing shell pair data                  ... done (  0.1 sec)
Shell pair information
Total number of shell pairs                 ...     36585
Shell pairs after pre-screening             ...     25479
Total number of primitive shell pairs       ...    133887
Primitive shell pairs kept                  ...     56404
          la=0 lb=0:   7798 shell pairs
          la=1 lb=0:   9513 shell pairs
          la=1 lb=1:   3000 shell pairs
          la=2 lb=0:   3044 shell pairs
          la=2 lb=1:   1858 shell pairs
          la=2 lb=2:    266 shell pairs

Calculating one electron integrals          ... done (  0.2 sec)
Calculating Nuclear repulsion               ... done (  0.0 sec) ENN=   3210.039781769427 Eh

SHARK setup successfully completed in   0.8 seconds

Maximum memory used throughout the entire GTOINT-calculation: 145.9 MB
-------------------------------------------------------------------------------
                                 ORCA SCF
-------------------------------------------------------------------------------

------------
SCF SETTINGS
------------
Hamiltonian:
 Ab initio Hamiltonian  Method          .... Hartree-Fock(GTOs)


General Settings:
 Integral files         IntName         .... START_a003_b004
 Hartree-Fock type      HFTyp           .... RHF
 Total Charge           Charge          ....    0
 Multiplicity           Mult            ....    1
 Number of Electrons    NEL             ....  224
 Basis Dimension        Dim             ....  582
 Nuclear Repulsion      ENuc            ....   3210.0397817694 Eh

Convergence Acceleration:
 DIIS                   CNVDIIS         .... on
   Start iteration      DIISMaxIt       ....    12
   Startup error        DIISStart       ....  0.200000
   # of expansion vecs  DIISMaxEq       ....     5
   Bias factor          DIISBfac        ....   1.050
   Max. coefficient     DIISMaxC        ....  10.000
 Trust-Rad. Augm. Hess. CNVTRAH         .... auto
   Auto Start mean grad. ratio tolernc. ....  1.125000
   Auto Start start iteration           ....    20
   Auto Start num. interpolation iter.  ....    10
   Max. Number of Micro iterations      ....    16
   Max. Number of Macro iterations      .... Maxiter - #DIIS iter
   Number of Davidson start vectors     ....     2
   Converg. threshold I  (grad. norm)   ....   5.000e-05
   Converg. threshold II (energy diff.) ....   1.000e-06
   Grad. Scal. Fac. for Micro threshold ....   0.100
   Minimum threshold for Micro iter.    ....   0.010
   NR start threshold (gradient norm)   ....   0.001
   Initial trust radius                 ....   0.400
   Minimum AH scaling param. (alpha)    ....   1.000
   Maximum AH scaling param. (alpha)    .... 1000.000
   Orbital update algorithm             .... Taylor
   White noise on init. David. guess    .... on
   Maximum white noise                  ....   0.010
   Quad. conv. algorithm                .... NR
 SOSCF                  CNVSOSCF        .... on
   Start iteration      SOSCFMaxIt      ....   150
   Startup grad/error   SOSCFStart      ....  0.003300
 Level Shifting         CNVShift        .... on
   Level shift para.    LevelShift      ....    0.2500
   Turn off err/grad.   ShiftErr        ....    0.0010
 Zerner damping         CNVZerner       .... off
 Static damping         CNVDamp         .... on
   Fraction old density DampFac         ....    0.7000
   Max. Damping (<1)    DampMax         ....    0.9800
   Min. Damping (>=0)   DampMin         ....    0.0000
   Turn off err/grad.   DampErr         ....    0.1000
 Fernandez-Rico         CNVRico         .... off

SCF Procedure:
 Maximum # iterations   MaxIter         ....     0
 SCF integral mode      SCFMode         .... Direct
   Integral package                     .... SHARK and LIBINT hybrid scheme
 Reset frequency        DirectResetFreq ....    20
 Integral Threshold     Thresh          ....  1.000e-10 Eh
 Primitive CutOff       TCut            ....  1.000e-11 Eh

Convergence Tolerance:
 Convergence Check Mode ConvCheckMode   .... Total+1el-Energy
 Convergence forced     ConvForced      .... 0
 Energy Change          TolE            ....  1.000e-06 Eh
 1-El. energy change                    ....  1.000e-03 Eh
 Orbital Gradient       TolG            ....  5.000e-05
 Orbital Rotation angle TolX            ....  5.000e-05
 DIIS Error             TolErr          ....  1.000e-06


Diagonalization of the overlap matrix:
Smallest eigenvalue                        ... 2.320e-04
Time for diagonalization                   ...    0.049 sec
Threshold for overlap eigenvalues          ... 1.000e-08
Number of eigenvalues below threshold      ... 0
Time for construction of square roots      ...    0.019 sec
Total time needed                          ...    0.068 sec

Time for model grid setup =    2.251 sec

------------------------------
INITIAL GUESS: MODEL POTENTIAL
------------------------------
Loading Hartree-Fock densities                     ... done
Calculating cut-offs                               ... done
Initializing the effective Hamiltonian             ... done
Setting up the integral package (SHARK)            ... done
Starting the Coulomb interaction                   ... done (   2.9 sec)
Reading the grid                                   ... done
Mapping shells                                     ... done
Starting the XC term evaluation                    ... done (   1.0 sec)
Transforming the Hamiltonian                       ... done (   0.0 sec)
Diagonalizing the Hamiltonian                      ... done (   0.0 sec)
Back transforming the eigenvectors                 ... done (   0.0 sec)
Now organizing SCF variables                       ... done
                      ------------------
                      INITIAL GUESS DONE (   6.2 sec)
                      ------------------

     ****MaxIter==0 has been chosen - skipping the SCF****

!!!!!!!!!!!!!!!!!!!!!!!!!!!!!!!!!!!!!!!!!!!!!!!!!!!!!!!!!!!
!! SERIOUS WARNING: The orbitals and populations did NOT !!
!!                  come from a CONVERGED calculation    !!
!!!!!!!!!!!!!!!!!!!!!!!!!!!!!!!!!!!!!!!!!!!!!!!!!!!!!!!!!!!

THE WAVEFUNCTION AND DENSITY WILL STILL BE STORED BUT BE CAREFUL
MAKE SURE THAT WHAT YOU INPUT MAKES ACTUALLY SENSE!

             **** DENSITY START_a003_b004.scfp WAS UPDATED ****
----------------
ORBITAL ENERGIES
----------------

  NO   OCC          E(Eh)            E(eV) 
   0   2.0000     -18.802675      -511.6468 
   1   2.0000     -14.043691      -382.1482 
   2   2.0000      -9.964172      -271.1389 
   3   2.0000      -9.963468      -271.1197 
   4   2.0000      -9.963380      -271.1173 
   5   2.0000      -9.962479      -271.0928 
   6   2.0000      -9.962412      -271.0910 
   7   2.0000      -9.962203      -271.0853 
   8   2.0000      -9.962141      -271.0836 
   9   2.0000      -9.962073      -271.0818 
  10   2.0000      -9.961993      -271.0796 
  11   2.0000      -9.961942      -271.0782 
  12   2.0000      -9.961937      -271.0781 
  13   2.0000      -9.961929      -271.0779 
  14   2.0000      -9.961896      -271.0770 
  15   2.0000      -9.961854      -271.0758 
  16   2.0000      -9.961842      -271.0755 
  17   2.0000      -9.961807      -271.0745 
  18   2.0000      -9.961746      -271.0729 
  19   2.0000      -9.961712      -271.0720 
  20   2.0000      -9.961487      -271.0658 
  21   2.0000      -9.961478      -271.0656 
  22   2.0000      -9.961427      -271.0642 
  23   2.0000      -9.961412      -271.0638 
  24   2.0000      -9.961311      -271.0611 
  25   2.0000      -9.961305      -271.0609 
  26   2.0000      -9.961142      -271.0565 
  27   2.0000      -9.958748      -270.9913 
  28   2.0000      -9.958369      -270.9810 
  29   2.0000      -9.958294      -270.9789 
  30   2.0000      -9.957238      -270.9502 
  31   2.0000      -9.946856      -270.6677 
  32   2.0000      -6.591331      -179.3592 
  33   2.0000      -1.095758       -29.8171 
  34   2.0000      -0.998454       -27.1693 
  35   2.0000      -0.926635       -25.2150 
  36   2.0000      -0.924046       -25.1446 
  37   2.0000      -0.922079       -25.0910 
  38   2.0000      -0.921854       -25.0849 
  39   2.0000      -0.871503       -23.7148 
  40   2.0000      -0.832210       -22.6456 
  41   2.0000      -0.821839       -22.3634 
  42   2.0000      -0.817024       -22.2323 
  43   2.0000      -0.815784       -22.1986 
  44   2.0000      -0.815432       -22.1890 
  45   2.0000      -0.814541       -22.1648 
  46   2.0000      -0.811651       -22.0861 
  47   2.0000      -0.810677       -22.0596 
  48   2.0000      -0.809815       -22.0362 
  49   2.0000      -0.736576       -20.0432 
  50   2.0000      -0.708545       -19.2805 
  51   2.0000      -0.706171       -19.2159 
  52   2.0000      -0.692717       -18.8498 
  53   2.0000      -0.687698       -18.7132 
  54   2.0000      -0.686566       -18.6824 
  55   2.0000      -0.678972       -18.4758 
  56   2.0000      -0.678471       -18.4621 
  57   2.0000      -0.676743       -18.4151 
  58   2.0000      -0.674567       -18.3559 
  59   2.0000      -0.653463       -17.7816 
  60   2.0000      -0.627746       -17.0818 
  61   2.0000      -0.612764       -16.6741 
  62   2.0000      -0.604873       -16.4594 
  63   2.0000      -0.600217       -16.3327 
  64   2.0000      -0.596843       -16.2409 
  65   2.0000      -0.590358       -16.0644 
  66   2.0000      -0.572361       -15.5747 
  67   2.0000      -0.571262       -15.5448 
  68   2.0000      -0.568211       -15.4618 
  69   2.0000      -0.566447       -15.4138 
  70   2.0000      -0.551667       -15.0116 
  71   2.0000      -0.540777       -14.7153 
  72   2.0000      -0.528949       -14.3934 
  73   2.0000      -0.523529       -14.2459 
  74   2.0000      -0.519075       -14.1247 
  75   2.0000      -0.518044       -14.0967 
  76   2.0000      -0.517395       -14.0790 
  77   2.0000      -0.516495       -14.0545 
  78   2.0000      -0.514884       -14.0107 
  79   2.0000      -0.511812       -13.9271 
  80   2.0000      -0.510511       -13.8917 
  81   2.0000      -0.508401       -13.8343 
  82   2.0000      -0.506579       -13.7847 
  83   2.0000      -0.504845       -13.7375 
  84   2.0000      -0.495742       -13.4898 
  85   2.0000      -0.486298       -13.2329 
  86   2.0000      -0.478763       -13.0278 
  87   2.0000      -0.462556       -12.5868 
  88   2.0000      -0.458538       -12.4774 
  89   2.0000      -0.456558       -12.4236 
  90   2.0000      -0.455374       -12.3914 
  91   2.0000      -0.453421       -12.3382 
  92   2.0000      -0.450875       -12.2689 
  93   2.0000      -0.446249       -12.1431 
  94   2.0000      -0.441466       -12.0129 
  95   2.0000      -0.439740       -11.9659 
  96   2.0000      -0.438090       -11.9210 
  97   2.0000      -0.436486       -11.8774 
  98   2.0000      -0.427878       -11.6431 
  99   2.0000      -0.420009       -11.4290 
 100   2.0000      -0.395303       -10.7568 
 101   2.0000      -0.385648       -10.4940 
 102   2.0000      -0.364024        -9.9056 
 103   2.0000      -0.362053        -9.8520 
 104   2.0000      -0.361743        -9.8435 
 105   2.0000      -0.360773        -9.8171 
 106   2.0000      -0.358076        -9.7437 
 107   2.0000      -0.357511        -9.7284 
 108   2.0000      -0.355599        -9.6764 
 109   2.0000      -0.353489        -9.6189 
 110   2.0000      -0.349905        -9.5214 
 111   2.0000      -0.347233        -9.4487 
 112   0.0000      -0.218839        -5.9549 
 113   0.0000      -0.184953        -5.0328 
 114   0.0000      -0.176653        -4.8070 
 115   0.0000      -0.168983        -4.5983 
 116   0.0000      -0.167734        -4.5643 
 117   0.0000      -0.164934        -4.4881 
 118   0.0000      -0.162848        -4.4313 
 119   0.0000      -0.158660        -4.3174 
 120   0.0000      -0.155127        -4.2212 
 121   0.0000      -0.153723        -4.1830 
 122   0.0000      -0.110299        -3.0014 
 123   0.0000      -0.057838        -1.5739 
 124   0.0000      -0.034122        -0.9285 
 125   0.0000      -0.030397        -0.8271 
 126   0.0000      -0.026478        -0.7205 
 127   0.0000      -0.024236        -0.6595 
 128   0.0000      -0.022804        -0.6205 
 129   0.0000      -0.019300        -0.5252 
 130   0.0000      -0.015077        -0.4103 
 131   0.0000      -0.008053        -0.2191 
 132   0.0000      -0.001621        -0.0441 
 133   0.0000       0.001386         0.0377 
 134   0.0000       0.001837         0.0500 
 135   0.0000       0.004935         0.1343 
 136   0.0000       0.013256         0.3607 
 137   0.0000       0.016871         0.4591 
 138   0.0000       0.021348         0.5809 
 139   0.0000       0.024769         0.6740 
 140   0.0000       0.030868         0.8400 
 141   0.0000       0.036818         1.0019 
 142   0.0000       0.041570         1.1312 
 143   0.0000       0.052601         1.4313 
 144   0.0000       0.055967         1.5229 
 145   0.0000       0.058493         1.5917 
 146   0.0000       0.062894         1.7114 
 147   0.0000       0.063931         1.7396 
 148   0.0000       0.067419         1.8346 
 149   0.0000       0.074149         2.0177 
 150   0.0000       0.075573         2.0565 
 151   0.0000       0.080470         2.1897 
 152   0.0000       0.083953         2.2845 
 153   0.0000       0.089299         2.4300 
 154   0.0000       0.094681         2.5764 
 155   0.0000       0.104842         2.8529 
 156   0.0000       0.107383         2.9220 
 157   0.0000       0.111428         3.0321 
 158   0.0000       0.124681         3.3927 
 159   0.0000       0.126842         3.4515 
 160   0.0000       0.128912         3.5079 
 161   0.0000       0.130229         3.5437 
 162   0.0000       0.134919         3.6713 
 163   0.0000       0.138642         3.7726 
 164   0.0000       0.139898         3.8068 
 165   0.0000       0.141897         3.8612 
 166   0.0000       0.142479         3.8771 
 167   0.0000       0.147116         4.0032 
 168   0.0000       0.150938         4.1072 
 169   0.0000       0.152682         4.1547 
 170   0.0000       0.155822         4.2401 
 171   0.0000       0.159218         4.3325 
 172   0.0000       0.163820         4.4578 
 173   0.0000       0.173757         4.7282 
 174   0.0000       0.180073         4.9000 
 175   0.0000       0.183361         4.9895 
 176   0.0000       0.193140         5.2556 
 177   0.0000       0.197646         5.3782 
 178   0.0000       0.200922         5.4674 
 179   0.0000       0.213562         5.8113 
 180   0.0000       0.221044         6.0149 
 181   0.0000       0.225870         6.1462 
 182   0.0000       0.231679         6.3043 
 183   0.0000       0.239975         6.5301 
 184   0.0000       0.252074         6.8593 
 185   0.0000       0.256133         6.9697 
 186   0.0000       0.257153         6.9975 
 187   0.0000       0.267292         7.2734 
 188   0.0000       0.274759         7.4766 
 189   0.0000       0.275421         7.4946 
 190   0.0000       0.282441         7.6856 
 191   0.0000       0.287248         7.8164 
 192   0.0000       0.293726         7.9927 
 193   0.0000       0.295544         8.0422 
 194   0.0000       0.297964         8.1080 
 195   0.0000       0.300394         8.1741 
 196   0.0000       0.304073         8.2742 
 197   0.0000       0.306799         8.3484 
 198   0.0000       0.312138         8.4937 
 199   0.0000       0.314834         8.5671 
 200   0.0000       0.320514         8.7216 
 201   0.0000       0.321795         8.7565 
 202   0.0000       0.325904         8.8683 
 203   0.0000       0.331125         9.0104 
 204   0.0000       0.332554         9.0492 
 205   0.0000       0.337385         9.1807 
 206   0.0000       0.339959         9.2507 
 207   0.0000       0.342078         9.3084 
 208   0.0000       0.344730         9.3806 
 209   0.0000       0.348568         9.4850 
 210   0.0000       0.350914         9.5488 
 211   0.0000       0.352884         9.6025 
 212   0.0000       0.353857         9.6289 
 213   0.0000       0.355792         9.6816 
 214   0.0000       0.361470         9.8361 
 215   0.0000       0.365058         9.9337 
 216   0.0000       0.367271         9.9940 
 217   0.0000       0.369614        10.0577 
 218   0.0000       0.375753        10.2248 
 219   0.0000       0.382825        10.4172 
 220   0.0000       0.386164        10.5081 
 221   0.0000       0.388371        10.5681 
 222   0.0000       0.394827        10.7438 
 223   0.0000       0.398719        10.8497 
 224   0.0000       0.403232        10.9725 
 225   0.0000       0.408223        11.1083 
 226   0.0000       0.413054        11.2398 
 227   0.0000       0.415976        11.3193 
 228   0.0000       0.416497        11.3335 
 229   0.0000       0.424601        11.5540 
 230   0.0000       0.427455        11.6317 
 231   0.0000       0.435180        11.8418 
 232   0.0000       0.436646        11.8818 
 233   0.0000       0.439923        11.9709 
 234   0.0000       0.451923        12.2974 
 235   0.0000       0.461997        12.5716 
 236   0.0000       0.466754        12.7010 
 237   0.0000       0.470179        12.7942 
 238   0.0000       0.484943        13.1960 
 239   0.0000       0.488185        13.2842 
 240   0.0000       0.491559        13.3760 
 241   0.0000       0.499658        13.5964 
 242   0.0000       0.501938        13.6584 
 243   0.0000       0.504843        13.7375 
 244   0.0000       0.508684        13.8420 
 245   0.0000       0.510960        13.9039 
 246   0.0000       0.512714        13.9516 
 247   0.0000       0.515734        14.0338 
 248   0.0000       0.517124        14.0717 
 249   0.0000       0.521306        14.1855 
 250   0.0000       0.524297        14.2668 
 251   0.0000       0.527095        14.3430 
 252   0.0000       0.529009        14.3951 
 253   0.0000       0.534854        14.5541 
 254   0.0000       0.535271        14.5655 
 255   0.0000       0.539865        14.6905 
 256   0.0000       0.540194        14.6994 
 257   0.0000       0.544928        14.8283 
 258   0.0000       0.545559        14.8454 
 259   0.0000       0.551921        15.0185 
 260   0.0000       0.554814        15.0972 
 261   0.0000       0.555972        15.1288 
 262   0.0000       0.557267        15.1640 
 263   0.0000       0.558191        15.1891 
 264   0.0000       0.563231        15.3263 
 265   0.0000       0.565305        15.3827 
 266   0.0000       0.572717        15.5844 
 267   0.0000       0.574911        15.6441 
 268   0.0000       0.577667        15.7191 
 269   0.0000       0.580867        15.8062 
 270   0.0000       0.584103        15.8943 
 271   0.0000       0.588071        16.0022 
 272   0.0000       0.590127        16.0582 
 273   0.0000       0.594135        16.1672 
 274   0.0000       0.600059        16.3284 
 275   0.0000       0.604715        16.4551 
 276   0.0000       0.607651        16.5350 
 277   0.0000       0.611952        16.6521 
 278   0.0000       0.616060        16.7638 
 279   0.0000       0.621477        16.9112 
 280   0.0000       0.625023        17.0077 
 281   0.0000       0.628523        17.1030 
 282   0.0000       0.630595        17.1594 
 283   0.0000       0.637876        17.3575 
 284   0.0000       0.644485        17.5373 
 285   0.0000       0.647418        17.6171 
 286   0.0000       0.655523        17.8377 
 287   0.0000       0.660983        17.9863 
 288   0.0000       0.662812        18.0360 
 289   0.0000       0.665492        18.1090 
 290   0.0000       0.677000        18.4221 
 291   0.0000       0.687522        18.7084 
 292   0.0000       0.691863        18.8266 
 293   0.0000       0.695693        18.9308 
 294   0.0000       0.707275        19.2459 
 295   0.0000       0.716020        19.4839 
 296   0.0000       0.720877        19.6161 
 297   0.0000       0.726470        19.7682 
 298   0.0000       0.728412        19.8211 
 299   0.0000       0.738136        20.0857 
 300   0.0000       0.755162        20.5490 
 301   0.0000       0.761180        20.7128 
 302   0.0000       0.764182        20.7945 
 303   0.0000       0.769638        20.9429 
 304   0.0000       0.783485        21.3197 
 305   0.0000       0.793606        21.5951 
 306   0.0000       0.803615        21.8675 
 307   0.0000       0.806385        21.9429 
 308   0.0000       0.820840        22.3362 
 309   0.0000       0.826562        22.4919 
 310   0.0000       0.848315        23.0838 
 311   0.0000       0.861310        23.4374 
 312   0.0000       0.878694        23.9105 
 313   0.0000       0.884272        24.0623 
 314   0.0000       0.892674        24.2909 
 315   0.0000       0.900035        24.4912 
 316   0.0000       0.903457        24.5843 
 317   0.0000       0.919135        25.0109 
 318   0.0000       0.920945        25.0602 
 319   0.0000       0.938558        25.5395 
 320   0.0000       0.944339        25.6968 
 321   0.0000       0.951281        25.8857 
 322   0.0000       0.971495        26.4357 
 323   0.0000       0.984635        26.7933 
 324   0.0000       0.998803        27.1788 
 325   0.0000       1.009794        27.4779 
 326   0.0000       1.018428        27.7128 
 327   0.0000       1.027099        27.9488 
 328   0.0000       1.036796        28.2126 
 329   0.0000       1.042951        28.3802 
 330   0.0000       1.052441        28.6384 
 331   0.0000       1.055872        28.7317 
 332   0.0000       1.061671        28.8895 
 333   0.0000       1.063776        28.9468 
 334   0.0000       1.067940        29.0601 
 335   0.0000       1.070954        29.1421 
 336   0.0000       1.072795        29.1922 
 337   0.0000       1.080168        29.3929 
 338   0.0000       1.082182        29.4477 
 339   0.0000       1.087764        29.5996 
 340   0.0000       1.092176        29.7196 
 341   0.0000       1.098370        29.8882 
 342   0.0000       1.103717        30.0337 
 343   0.0000       1.110726        30.2244 
 344   0.0000       1.118862        30.4458 
 345   0.0000       1.120255        30.4837 
 346   0.0000       1.123411        30.5696 
 347   0.0000       1.126806        30.6619 
 348   0.0000       1.134537        30.8723 
 349   0.0000       1.140465        31.0336 
 350   0.0000       1.145237        31.1635 
 351   0.0000       1.151954        31.3463 
 352   0.0000       1.157924        31.5087 
 353   0.0000       1.165008        31.7015 
 354   0.0000       1.174783        31.9675 
 355   0.0000       1.184505        32.2320 
 356   0.0000       1.188269        32.3344 
 357   0.0000       1.192018        32.4365 
 358   0.0000       1.205379        32.8000 
 359   0.0000       1.217344        33.1256 
 360   0.0000       1.238435        33.6995 
 361   0.0000       1.249446        33.9991 
 362   0.0000       1.253543        34.1106 
 363   0.0000       1.268291        34.5120 
 364   0.0000       1.276745        34.7420 
 365   0.0000       1.328468        36.1495 
 366   0.0000       1.332354        36.2552 
 367   0.0000       1.343149        36.5489 
 368   0.0000       1.363626        37.1062 
 369   0.0000       1.371442        37.3188 
 370   0.0000       1.387786        37.7636 
 371   0.0000       1.393089        37.9079 
 372   0.0000       1.406635        38.2765 
 373   0.0000       1.417160        38.5629 
 374   0.0000       1.426064        38.8052 
 375   0.0000       1.434658        39.0390 
 376   0.0000       1.468464        39.9589 
 377   0.0000       1.479620        40.2625 
 378   0.0000       1.484454        40.3941 
 379   0.0000       1.491749        40.5925 
 380   0.0000       1.496446        40.7204 
 381   0.0000       1.498009        40.7629 
 382   0.0000       1.500607        40.8336 
 383   0.0000       1.500992        40.8441 
 384   0.0000       1.503075        40.9007 
 385   0.0000       1.507683        41.0262 
 386   0.0000       1.517748        41.3000 
 387   0.0000       1.528334        41.5881 
 388   0.0000       1.530149        41.6375 
 389   0.0000       1.541610        41.9493 
 390   0.0000       1.547065        42.0978 
 391   0.0000       1.548649        42.1409 
 392   0.0000       1.551344        42.2142 
 393   0.0000       1.558170        42.4000 
 394   0.0000       1.562938        42.5297 
 395   0.0000       1.566718        42.6326 
 396   0.0000       1.568024        42.6681 
 397   0.0000       1.572083        42.7786 
 398   0.0000       1.575914        42.8828 
 399   0.0000       1.578168        42.9441 
 400   0.0000       1.581597        43.0374 
 401   0.0000       1.582893        43.0727 
 402   0.0000       1.586331        43.1663 
 403   0.0000       1.587984        43.2112 
 404   0.0000       1.589874        43.2627 
 405   0.0000       1.591995        43.3204 
 406   0.0000       1.599287        43.5188 
 407   0.0000       1.602337        43.6018 
 408   0.0000       1.605749        43.6947 
 409   0.0000       1.609271        43.7905 
 410   0.0000       1.614603        43.9356 
 411   0.0000       1.618092        44.0305 
 412   0.0000       1.628490        44.3135 
 413   0.0000       1.632881        44.4330 
 414   0.0000       1.638662        44.5903 
 415   0.0000       1.642981        44.7078 
 416   0.0000       1.653124        44.9838 
 417   0.0000       1.656880        45.0860 
 418   0.0000       1.663264        45.2597 
 419   0.0000       1.668263        45.3957 
 420   0.0000       1.672457        45.5099 
 421   0.0000       1.675302        45.5873 
 422   0.0000       1.689921        45.9851 
 423   0.0000       1.693624        46.0858 
 424   0.0000       1.699029        46.2329 
 425   0.0000       1.703781        46.3622 
 426   0.0000       1.711049        46.5600 
 427   0.0000       1.718391        46.7598 
 428   0.0000       1.734885        47.2086 
 429   0.0000       1.743281        47.4371 
 430   0.0000       1.759285        47.8726 
 431   0.0000       1.767754        48.1030 
 432   0.0000       1.770411        48.1753 
 433   0.0000       1.779919        48.4341 
 434   0.0000       1.780567        48.4517 
 435   0.0000       1.782257        48.4977 
 436   0.0000       1.785065        48.5741 
 437   0.0000       1.789488        48.6944 
 438   0.0000       1.792661        48.7808 
 439   0.0000       1.801538        49.0223 
 440   0.0000       1.807188        49.1761 
 441   0.0000       1.813365        49.3442 
 442   0.0000       1.815919        49.4137 
 443   0.0000       1.819525        49.5118 
 444   0.0000       1.824539        49.6482 
 445   0.0000       1.824973        49.6600 
 446   0.0000       1.828695        49.7613 
 447   0.0000       1.830912        49.8217 
 448   0.0000       1.836219        49.9660 
 449   0.0000       1.839435        50.0536 
 450   0.0000       1.845835        50.2277 
 451   0.0000       1.848444        50.2987 
 452   0.0000       1.861347        50.6498 
 453   0.0000       1.867003        50.8037 
 454   0.0000       1.886789        51.3422 
 455   0.0000       1.888807        51.3971 
 456   0.0000       1.898272        51.6546 
 457   0.0000       1.909663        51.9646 
 458   0.0000       1.912894        52.0525 
 459   0.0000       1.923062        52.3292 
 460   0.0000       1.927397        52.4471 
 461   0.0000       1.932311        52.5809 
 462   0.0000       1.936461        52.6938 
 463   0.0000       1.945115        52.9293 
 464   0.0000       1.952712        53.1360 
 465   0.0000       1.963317        53.4246 
 466   0.0000       1.976347        53.7791 
 467   0.0000       1.977397        53.8077 
 468   0.0000       1.983405        53.9712 
 469   0.0000       1.989303        54.1317 
 470   0.0000       1.992817        54.2273 
 471   0.0000       2.000407        54.4339 
 472   0.0000       2.008970        54.6669 
 473   0.0000       2.010976        54.7214 
 474   0.0000       2.013271        54.7839 
 475   0.0000       2.039044        55.4852 
 476   0.0000       2.051594        55.8267 
 477   0.0000       2.054132        55.8958 
 478   0.0000       2.059123        56.0316 
 479   0.0000       2.065220        56.1975 
 480   0.0000       2.075925        56.4888 
 481   0.0000       2.085411        56.7469 
 482   0.0000       2.088559        56.8326 
 483   0.0000       2.090165        56.8763 
 484   0.0000       2.096121        57.0384 
 485   0.0000       2.098092        57.0920 
 486   0.0000       2.101622        57.1880 
 487   0.0000       2.106481        57.3203 
 488   0.0000       2.109319        57.3975 
 489   0.0000       2.115189        57.5572 
 490   0.0000       2.121327        57.7242 
 491   0.0000       2.131225        57.9936 
 492   0.0000       2.145093        58.3710 
 493   0.0000       2.148935        58.4755 
 494   0.0000       2.151073        58.5337 
 495   0.0000       2.156944        58.6934 
 496   0.0000       2.158891        58.7464 
 497   0.0000       2.164299        58.8936 
 498   0.0000       2.166923        58.9650 
 499   0.0000       2.176239        59.2185 
 500   0.0000       2.179597        59.3099 
 501   0.0000       2.182054        59.3767 
 502   0.0000       2.186716        59.5036 
 503   0.0000       2.189848        59.5888 
 504   0.0000       2.213586        60.2347 
 505   0.0000       2.224032        60.5190 
 506   0.0000       2.249848        61.2215 
 507   0.0000       2.267502        61.7019 
 508   0.0000       2.285956        62.2040 
 509   0.0000       2.304404        62.7060 
 510   0.0000       2.306400        62.7603 
 511   0.0000       2.339436        63.6593 
 512   0.0000       2.343098        63.7589 
 513   0.0000       2.352432        64.0129 
 514   0.0000       2.365808        64.3769 
 515   0.0000       2.373500        64.5862 
 516   0.0000       2.383723        64.8644 
 517   0.0000       2.408225        65.5311 
 518   0.0000       2.409100        65.5549 
 519   0.0000       2.415407        65.7266 
 520   0.0000       2.421973        65.9052 
 521   0.0000       2.424334        65.9695 
 522   0.0000       2.429842        66.1194 
 523   0.0000       2.434400        66.2434 
 524   0.0000       2.438545        66.3562 
 525   0.0000       2.441325        66.4318 
 526   0.0000       2.443654        66.4952 
 527   0.0000       2.448283        66.6212 
 528   0.0000       2.452333        66.7314 
 529   0.0000       2.460909        66.9647 
 530   0.0000       2.467514        67.1445 
 531   0.0000       2.523308        68.6627 
 532   0.0000       2.540809        69.1389 
 533   0.0000       2.547878        69.3313 
 534   0.0000       2.550673        69.4073 
 535   0.0000       2.553220        69.4767 
 536   0.0000       2.554577        69.5136 
 537   0.0000       2.558821        69.6291 
 538   0.0000       2.560077        69.6632 
 539   0.0000       2.562441        69.7276 
 540   0.0000       2.572197        69.9930 
 541   0.0000       2.575766        70.0902 
 542   0.0000       2.618899        71.2639 
 543   0.0000       2.624408        71.4138 
 544   0.0000       2.637559        71.7716 
 545   0.0000       2.653297        72.1999 
 546   0.0000       2.660061        72.3839 
 547   0.0000       2.662291        72.4446 
 548   0.0000       2.670228        72.6606 
 549   0.0000       2.676320        72.8264 
 550   0.0000       2.681311        72.9622 
 551   0.0000       2.686825        73.1122 
 552   0.0000       2.694066        73.3093 
 553   0.0000       2.698137        73.4200 
 554   0.0000       2.701780        73.5192 
 555   0.0000       2.708458        73.7009 
 556   0.0000       2.730982        74.3138 
 557   0.0000       2.772586        75.4459 
 558   0.0000       2.802309        76.2547 
 559   0.0000       2.838242        77.2325 
 560   0.0000       2.844615        77.4059 
 561   0.0000       2.850958        77.5785 
 562   0.0000       2.862387        77.8895 
 563   0.0000       2.882950        78.4490 
 564   0.0000       2.907234        79.1099 
 565   0.0000       2.914712        79.3133 
 566   0.0000       2.920296        79.4653 
 567   0.0000       2.927485        79.6609 
 568   0.0000       2.943743        80.1033 
 569   0.0000       2.960460        80.5582 
 570   0.0000       2.999246        81.6136 
 571   0.0000       3.004338        81.7522 
 572   0.0000       3.023257        82.2670 
 573   0.0000       3.035348        82.5960 
 574   0.0000       3.109665        84.6183 
 575   0.0000       3.214470        87.4702 
 576   0.0000       3.391018        92.2743 
 577   0.0000       3.394160        92.3598 
 578   0.0000       3.404774        92.6486 
 579   0.0000       3.419935        93.0612 
 580   0.0000       3.445920        93.7682 
 581   0.0000       3.461405        94.1896 

                    ********************************
                    * MULLIKEN POPULATION ANALYSIS *
                    ********************************

-----------------------
MULLIKEN ATOMIC CHARGES
-----------------------
   0 C :    0.027589
   1 B :   -0.499000
   2 C :    0.006565
   3 C :   -0.193178
   4 C :   -0.095533
   5 C :   -0.117802
   6 C :   -0.101161
   7 C :   -0.148743
   8 C :   -0.009105
   9 C :   -0.165518
  10 C :   -0.104091
  11 C :   -0.125873
  12 C :   -0.107068
  13 C :   -0.132132
  14 C :   -0.139381
  15 C :   -0.099937
  16 C :   -0.129650
  17 C :   -0.098288
  18 C :   -0.168926
  19 O :   -0.250787
  20 C :    0.601449
  21 C :    0.060748
  22 C :   -0.100946
  23 C :   -0.127894
  24 C :   -0.069716
  25 C :   -0.122705
  26 C :   -0.118934
  27 C :   -0.020078
  28 C :   -0.083097
  29 C :    0.029680
  30 N :   -0.298987
  31 C :    0.034166
  32 C :   -0.132645
  33 H :    0.121309
  34 H :    0.124627
  35 H :    0.128286
  36 H :    0.126584
  37 H :    0.134265
  38 H :    0.129737
  39 H :    0.127140
  40 H :    0.129199
  41 H :    0.127069
  42 H :    0.130087
  43 H :    0.137227
  44 H :    0.127203
  45 H :    0.129138
  46 H :    0.126511
  47 H :    0.133353
  48 H :    0.125584
  49 H :    0.125707
  50 H :    0.128260
  51 H :    0.124895
  52 H :    0.105408
  53 H :    0.101806
  54 H :    0.115823
  55 H :    0.117239
  56 H :    0.124522
Sum of atomic charges:   -0.0000000

--------------------------------
MULLIKEN REDUCED ORBITAL CHARGES
--------------------------------
  0 C s       :     3.051605  s :     3.051605
      pz      :     0.927996  p :     2.881999
      px      :     0.973439
      py      :     0.980564
      dz2     :     0.009523  d :     0.038807
      dxz     :     0.008664
      dyz     :     0.007822
      dx2y2   :     0.006324
      dxy     :     0.006474
  1 B s       :     3.033342  s :     3.033342
      pz      :     0.924032  p :     2.350664
      px      :     0.577230
      py      :     0.849402
      dz2     :     0.020065  d :     0.114995
      dxz     :     0.022060
      dyz     :     0.025761
      dx2y2   :     0.019247
      dxy     :     0.027862
  2 C s       :     3.041081  s :     3.041081
      pz      :     0.946452  p :     2.913835
      px      :     1.029414
      py      :     0.937970
      dz2     :     0.009379  d :     0.038519
      dxz     :     0.005842
      dyz     :     0.010778
      dx2y2   :     0.006549
      dxy     :     0.005971
  3 C s       :     3.224667  s :     3.224667
      pz      :     0.951859  p :     2.929018
      px      :     0.964813
      py      :     1.012346
      dz2     :     0.008407  d :     0.039493
      dxz     :     0.004160
      dyz     :     0.011261
      dx2y2   :     0.007827
      dxy     :     0.007838
  4 C s       :     3.164031  s :     3.164031
      pz      :     0.971589  p :     2.892739
      px      :     0.986697
      py      :     0.934453
      dz2     :     0.009834  d :     0.038763
      dxz     :     0.006647
      dyz     :     0.011038
      dx2y2   :     0.006527
      dxy     :     0.004716
  5 C s       :     3.186405  s :     3.186405
      pz      :     0.968388  p :     2.892088
      px      :     0.962123
      py      :     0.961577
      dz2     :     0.008891  d :     0.039309
      dxz     :     0.005790
      dyz     :     0.012016
      dx2y2   :     0.006338
      dxy     :     0.006273
  6 C s       :     3.171030  s :     3.171030
      pz      :     0.936724  p :     2.891323
      px      :     0.975170
      py      :     0.979430
      dz2     :     0.008270  d :     0.038808
      dxz     :     0.004252
      dyz     :     0.011137
      dx2y2   :     0.007657
      dxy     :     0.007492
  7 C s       :     3.230795  s :     3.230795
      pz      :     0.965915  p :     2.878735
      px      :     0.975832
      py      :     0.936989
      dz2     :     0.009834  d :     0.039212
      dxz     :     0.006792
      dyz     :     0.011367
      dx2y2   :     0.006610
      dxy     :     0.004611
  8 C s       :     3.061884  s :     3.061884
      pz      :     0.960690  p :     2.908593
      px      :     1.000082
      py      :     0.947822
      dz2     :     0.008110  d :     0.038628
      dxz     :     0.006213
      dyz     :     0.009629
      dx2y2   :     0.007365
      dxy     :     0.007310
  9 C s       :     3.218615  s :     3.218615
      pz      :     0.974806  p :     2.907513
      px      :     0.979790
      py      :     0.952918
      dz2     :     0.007905  d :     0.039389
      dxz     :     0.007024
      dyz     :     0.009416
      dx2y2   :     0.008411
      dxy     :     0.006633
 10 C s       :     3.165434  s :     3.165434
      pz      :     0.949991  p :     2.899684
      px      :     0.969868
      py      :     0.979826
      dz2     :     0.006199  d :     0.038973
      dxz     :     0.005379
      dyz     :     0.009726
      dx2y2   :     0.008849
      dxy     :     0.008820
 11 C s       :     3.182063  s :     3.182063
      pz      :     0.975808  p :     2.904425
      px      :     0.964576
      py      :     0.964042
      dz2     :     0.007800  d :     0.039385
      dxz     :     0.006139
      dyz     :     0.010064
      dx2y2   :     0.007215
      dxy     :     0.008167
 12 C s       :     3.168192  s :     3.168192
      pz      :     0.976594  p :     2.899808
      px      :     0.983039
      py      :     0.940175
      dz2     :     0.008002  d :     0.039067
      dxz     :     0.006951
      dyz     :     0.009265
      dx2y2   :     0.008188
      dxy     :     0.006661
 13 C s       :     3.219692  s :     3.219692
      pz      :     0.952362  p :     2.873316
      px      :     0.953653
      py      :     0.967300
      dz2     :     0.006530  d :     0.039124
      dxz     :     0.005253
      dyz     :     0.009664
      dx2y2   :     0.008719
      dxy     :     0.008958
 14 C s       :     3.222508  s :     3.222508
      pz      :     0.928249  p :     2.877474
      px      :     0.980369
      py      :     0.968856
      dz2     :     0.009132  d :     0.039399
      dxz     :     0.010267
      dyz     :     0.007592
      dx2y2   :     0.006095
      dxy     :     0.006314
 15 C s       :     3.163105  s :     3.163105
      pz      :     0.985574  p :     2.897744
      px      :     0.949664
      py      :     0.962507
      dz2     :     0.011857  d :     0.039088
      dxz     :     0.009976
      dyz     :     0.008695
      dx2y2   :     0.003299
      dxy     :     0.005260
 16 C s       :     3.184270  s :     3.184270
      pz      :     0.957734  p :     2.905988
      px      :     0.969261
      py      :     0.978994
      dz2     :     0.009624  d :     0.039393
      dxz     :     0.009883
      dyz     :     0.007382
      dx2y2   :     0.006173
      dxy     :     0.006330
 17 C s       :     3.167275  s :     3.167275
      pz      :     0.948166  p :     2.891975
      px      :     0.972885
      py      :     0.970924
      dz2     :     0.009379  d :     0.039038
      dxz     :     0.009445
      dyz     :     0.007523
      dx2y2   :     0.006178
      dxy     :     0.006512
 18 C s       :     3.217292  s :     3.217292
      pz      :     0.968548  p :     2.912616
      px      :     0.961360
      py      :     0.982708
      dz2     :     0.012267  d :     0.039018
      dxz     :     0.009750
      dyz     :     0.008578
      dx2y2   :     0.002945
      dxy     :     0.005479
 19 O s       :     3.705712  s :     3.705712
      pz      :     1.561734  p :     4.532191
      px      :     1.259641
      py      :     1.710816
      dz2     :     0.001502  d :     0.012884
      dxz     :     0.003064
      dyz     :     0.000772
      dx2y2   :     0.003351
      dxy     :     0.004194
 20 C s       :     3.003237  s :     3.003237
      pz      :     0.566823  p :     2.312111
      px      :     0.846448
      py      :     0.898840
      dz2     :     0.006656  d :     0.083203
      dxz     :     0.017016
      dyz     :     0.005626
      dx2y2   :     0.024759
      dxy     :     0.029147
 21 C s       :     3.022600  s :     3.022600
      pz      :     0.990086  p :     2.876118
      px      :     0.934719
      py      :     0.951313
      dz2     :     0.005212  d :     0.040535
      dxz     :     0.006259
      dyz     :     0.005256
      dx2y2   :     0.011048
      dxy     :     0.012760
 22 C s       :     3.233713  s :     3.233713
      pz      :     0.928280  p :     2.829225
      px      :     1.007983
      py      :     0.892962
      dz2     :     0.003722  d :     0.038008
      dxz     :     0.007363
      dyz     :     0.004645
      dx2y2   :     0.011648
      dxy     :     0.010630
 23 C s       :     3.175959  s :     3.175959
      pz      :     0.984641  p :     2.913345
      px      :     0.950544
      py      :     0.978160
      dz2     :     0.004388  d :     0.038590
      dxz     :     0.004767
      dyz     :     0.006620
      dx2y2   :     0.011938
      dxy     :     0.010876
 24 C s       :     3.168509  s :     3.168509
      pz      :     0.941849  p :     2.862146
      px      :     0.961843
      py      :     0.958454
      dz2     :     0.004820  d :     0.039060
      dxz     :     0.006205
      dyz     :     0.005355
      dx2y2   :     0.010443
      dxy     :     0.012237
 25 C s       :     3.177910  s :     3.177910
      pz      :     0.979724  p :     2.906098
      px      :     0.975855
      py      :     0.950519
      dz2     :     0.003836  d :     0.038696
      dxz     :     0.006969
      dyz     :     0.004626
      dx2y2   :     0.011866
      dxy     :     0.011399
 26 C s       :     3.256188  s :     3.256188
      pz      :     0.945369  p :     2.824852
      px      :     0.886326
      py      :     0.993157
      dz2     :     0.004446  d :     0.037895
      dxz     :     0.004690
      dyz     :     0.006808
      dx2y2   :     0.011715
      dxy     :     0.010236
 27 C s       :     3.002232  s :     3.002232
      pz      :     0.983597  p :     2.974918
      px      :     0.951797
      py      :     1.039523
      dz2     :     0.010361  d :     0.042929
      dxz     :     0.007657
      dyz     :     0.010004
      dx2y2   :     0.007971
      dxy     :     0.006935
 28 C s       :     3.173159  s :     3.173159
      pz      :     0.974493  p :     2.874745
      px      :     0.952223
      py      :     0.948029
      dz2     :     0.007624  d :     0.035193
      dxz     :     0.005609
      dyz     :     0.009281
      dx2y2   :     0.006476
      dxy     :     0.006202
 29 C s       :     3.127036  s :     3.127036
      pz      :     0.943742  p :     2.785705
      px      :     0.886318
      py      :     0.955646
      dz2     :     0.013152  d :     0.057578
      dxz     :     0.008437
      dyz     :     0.014366
      dx2y2   :     0.010492
      dxy     :     0.011131
 30 N s       :     3.476286  s :     3.476286
      pz      :     1.074930  p :     3.793518
      px      :     1.196640
      py      :     1.521948
      dz2     :     0.005950  d :     0.029184
      dxz     :     0.005003
      dyz     :     0.008875
      dx2y2   :     0.004139
      dxy     :     0.005218
 31 C s       :     3.121926  s :     3.121926
      pz      :     0.921597  p :     2.786383
      px      :     0.903148
      py      :     0.961638
      dz2     :     0.012742  d :     0.057526
      dxz     :     0.010077
      dyz     :     0.017675
      dx2y2   :     0.008711
      dxy     :     0.008321
 32 C s       :     3.209427  s :     3.209427
      pz      :     0.944179  p :     2.887689
      px      :     0.982995
      py      :     0.960514
      dz2     :     0.007426  d :     0.035529
      dxz     :     0.005209
      dyz     :     0.009049
      dx2y2   :     0.007088
      dxy     :     0.006758
 33 H s       :     0.852262  s :     0.852262
      pz      :     0.016097  p :     0.026429
      px      :     0.006375
      py      :     0.003957
 34 H s       :     0.849120  s :     0.849120
      pz      :     0.005025  p :     0.026253
      px      :     0.004316
      py      :     0.016912
 35 H s       :     0.845607  s :     0.845607
      pz      :     0.008528  p :     0.026107
      px      :     0.006046
      py      :     0.011533
 36 H s       :     0.847198  s :     0.847198
      pz      :     0.016101  p :     0.026218
      px      :     0.006317
      py      :     0.003801
 37 H s       :     0.839512  s :     0.839512
      pz      :     0.005298  p :     0.026223
      px      :     0.004335
      py      :     0.016590
 38 H s       :     0.843771  s :     0.843771
      pz      :     0.005933  p :     0.026492
      px      :     0.004146
      py      :     0.016413
 39 H s       :     0.846537  s :     0.846537
      pz      :     0.013456  p :     0.026323
      px      :     0.008963
      py      :     0.003904
 40 H s       :     0.844561  s :     0.844561
      pz      :     0.006595  p :     0.026240
      px      :     0.008395
      py      :     0.011250
 41 H s       :     0.846682  s :     0.846682
      pz      :     0.005730  p :     0.026248
      px      :     0.003999
      py      :     0.016519
 42 H s       :     0.843447  s :     0.843447
      pz      :     0.013850  p :     0.026466
      px      :     0.008497
      py      :     0.004119
 43 H s       :     0.836584  s :     0.836584
      pz      :     0.014294  p :     0.026189
      px      :     0.005423
      py      :     0.006472
 44 H s       :     0.846514  s :     0.846514
      pz      :     0.003113  p :     0.026283
      px      :     0.013458
      py      :     0.009712
 45 H s       :     0.844606  s :     0.844606
      pz      :     0.014389  p :     0.026256
      px      :     0.007189
      py      :     0.004677
 46 H s       :     0.847216  s :     0.847216
      pz      :     0.014494  p :     0.026273
      px      :     0.005150
      py      :     0.006629
 47 H s       :     0.840292  s :     0.840292
      pz      :     0.003354  p :     0.026356
      px      :     0.012823
      py      :     0.010179
 48 H s       :     0.847977  s :     0.847977
      pz      :     0.006907  p :     0.026439
      px      :     0.004273
      py      :     0.015259
 49 H s       :     0.847847  s :     0.847847
      pz      :     0.005296  p :     0.026446
      px      :     0.017314
      py      :     0.003837
 50 H s       :     0.845708  s :     0.845708
      pz      :     0.004559  p :     0.026032
      px      :     0.010641
      py      :     0.010833
 51 H s       :     0.848629  s :     0.848629
      pz      :     0.006945  p :     0.026476
      px      :     0.004206
      py      :     0.015325
 52 H s       :     0.867926  s :     0.867926
      pz      :     0.005167  p :     0.026666
      px      :     0.017666
      py      :     0.003834
 53 H s       :     0.871020  s :     0.871020
      pz      :     0.010890  p :     0.027175
      px      :     0.009568
      py      :     0.006716
 54 H s       :     0.860224  s :     0.860224
      pz      :     0.013251  p :     0.023954
      px      :     0.004266
      py      :     0.006437
 55 H s       :     0.858835  s :     0.858835
      pz      :     0.008699  p :     0.023925
      px      :     0.007747
      py      :     0.007480
 56 H s       :     0.849023  s :     0.849023
      pz      :     0.014839  p :     0.026454
      px      :     0.005567
      py      :     0.006047


                     *******************************
                     * LOEWDIN POPULATION ANALYSIS *
                     *******************************

----------------------
[...]
      dxz     :     0.015278
      dyz     :     0.026364
      dx2y2   :     0.018875
      dxy     :     0.018752
 12 C s       :     2.869762  s :     2.869762
      pz      :     1.038795  p :     3.134300
      px      :     1.007768
      py      :     1.087737
      dz2     :     0.019093  d :     0.097595
      dxz     :     0.018791
      dyz     :     0.023700
      dx2y2   :     0.019043
      dxy     :     0.016968
 13 C s       :     2.863537  s :     2.863537
      pz      :     1.049050  p :     3.121416
      px      :     1.010800
      py      :     1.061565
      dz2     :     0.015662  d :     0.098303
      dxz     :     0.011216
      dyz     :     0.025630
      dx2y2   :     0.023349
      dxy     :     0.022447
 14 C s       :     2.862863  s :     2.862863
      pz      :     1.085757  p :     3.124505
      px      :     1.034249
      py      :     1.004499
      dz2     :     0.024715  d :     0.098555
      dxz     :     0.026744
      dyz     :     0.017407
      dx2y2   :     0.012981
      dxy     :     0.016707
 15 C s       :     2.869474  s :     2.869474
      pz      :     1.070662  p :     3.132600
      px      :     1.048121
      py      :     1.013817
      dz2     :     0.032963  d :     0.097769
      dxz     :     0.026800
      dyz     :     0.021750
      dx2y2   :     0.005702
      dxy     :     0.010555
 16 C s       :     2.870574  s :     2.870574
      pz      :     1.087064  p :     3.125839
      px      :     1.035911
      py      :     1.002864
      dz2     :     0.025530  d :     0.098031
      dxz     :     0.024781
      dyz     :     0.018322
      dx2y2   :     0.012648
      dxy     :     0.016751
 17 C s       :     2.869971  s :     2.869971
      pz      :     1.086199  p :     3.132192
      px      :     1.034779
      py      :     1.011213
      dz2     :     0.024820  d :     0.097603
      dxz     :     0.025172
      dyz     :     0.017680
      dx2y2   :     0.012951
      dxy     :     0.016980
 18 C s       :     2.864509  s :     2.864509
      pz      :     1.061782  p :     3.126305
      px      :     1.047320
      py      :     1.017203
      dz2     :     0.033917  d :     0.097915
      dxz     :     0.026120
      dyz     :     0.021603
      dx2y2   :     0.005306
      dxy     :     0.010970
 19 O s       :     3.412316  s :     3.412316
      pz      :     1.524815  p :     4.575950
      px      :     1.349131
      py      :     1.702003
      dz2     :     0.003142  d :     0.025170
      dxz     :     0.004177
      dyz     :     0.000773
      dx2y2   :     0.007964
      dxy     :     0.009115
 20 C s       :     2.805323  s :     2.805323
      pz      :     0.584537  p :     2.512868
      px      :     0.932767
      py      :     0.995564
      dz2     :     0.015206  d :     0.200226
      dxz     :     0.034529
      dyz     :     0.011138
      dx2y2   :     0.063028
      dxy     :     0.076325
 21 C s       :     2.849201  s :     2.849201
      pz      :     0.998071  p :     3.114075
      px      :     1.065506
      py      :     1.050499
      dz2     :     0.011301  d :     0.108681
      dxz     :     0.014507
      dyz     :     0.012487
      dx2y2   :     0.032808
      dxy     :     0.037579
 22 C s       :     2.867256  s :     2.867256
      pz      :     0.951675  p :     3.080582
      px      :     1.059429
      py      :     1.069478
      dz2     :     0.008112  d :     0.095390
      dxz     :     0.016545
      dyz     :     0.009080
      dx2y2   :     0.031888
      dxy     :     0.029765
 23 C s       :     2.868207  s :     2.868207
      pz      :     0.987574  p :     3.138109
      px      :     1.091239
      py      :     1.059296
      dz2     :     0.009038  d :     0.096715
      dxz     :     0.009797
      dyz     :     0.015916
      dx2y2   :     0.031451
      dxy     :     0.030513
 24 C s       :     2.870424  s :     2.870424
      pz      :     0.945084  p :     3.087482
      px      :     1.079542
      py      :     1.062856
      dz2     :     0.009723  d :     0.097408
      dxz     :     0.014098
      dyz     :     0.012400
      dx2y2   :     0.029539
      dxy     :     0.031649
 25 C s       :     2.868325  s :     2.868325
      pz      :     0.989205  p :     3.136666
      px      :     1.071725
      py      :     1.075736
      dz2     :     0.008293  d :     0.096952
      dxz     :     0.015823
      dyz     :     0.008949
      dx2y2   :     0.032353
      dxy     :     0.031534
 26 C s       :     2.867735  s :     2.867735
      pz      :     0.949232  p :     3.082008
      px      :     1.092949
      py      :     1.039827
      dz2     :     0.009232  d :     0.095406
      dxz     :     0.009569
      dyz     :     0.016148
      dx2y2   :     0.031707
      dxy     :     0.028749
 27 C s       :     2.846479  s :     2.846479
      pz      :     1.043188  p :     3.042228
      px      :     0.954550
      py      :     1.044490
      dz2     :     0.027117  d :     0.112567
      dxz     :     0.019768
      dyz     :     0.028165
      dx2y2   :     0.020178
      dxy     :     0.017338
 28 C s       :     2.872498  s :     2.872498
      pz      :     1.060541  p :     3.138349
      px      :     1.011808
      py      :     1.066000
      dz2     :     0.019805  d :     0.091620
      dxz     :     0.012835
      dyz     :     0.026793
      dx2y2   :     0.016826
      dxy     :     0.015360
 29 C s       :     2.852650  s :     2.852650
      pz      :     1.009153  p :     2.957724
      px      :     0.906731
      py      :     1.041840
      dz2     :     0.029933  d :     0.138494
      dxz     :     0.018491
      dyz     :     0.036697
      dx2y2   :     0.025139
      dxy     :     0.028234
 30 N s       :     3.231651  s :     3.231651
      pz      :     1.187752  p :     3.955701
      px      :     1.214482
      py      :     1.553467
      dz2     :     0.014203  d :     0.062384
      dxz     :     0.012530
      dyz     :     0.020235
      dx2y2   :     0.006321
      dxy     :     0.009096
 31 C s       :     2.853136  s :     2.853136
      pz      :     0.987961  p :     2.957503
      px      :     0.919443
      py      :     1.050098
      dz2     :     0.030026  d :     0.138562
      dxz     :     0.020301
      dyz     :     0.046946
      dx2y2   :     0.022515
      dxy     :     0.018774
 32 C s       :     2.873777  s :     2.873777
      pz      :     1.069568  p :     3.143619
      px      :     1.000351
      py      :     1.073701
      dz2     :     0.018471  d :     0.091547
      dxz     :     0.012254
      dyz     :     0.025326
      dx2y2   :     0.018293
      dxy     :     0.017203
 33 H s       :     0.819501  s :     0.819501
      pz      :     0.050048  p :     0.082025
      px      :     0.019092
      py      :     0.012885
 34 H s       :     0.813553  s :     0.813553
      pz      :     0.015903  p :     0.081023
      px      :     0.013069
      py      :     0.052050
 35 H s       :     0.813803  s :     0.813803
      pz      :     0.026511  p :     0.080585
      px      :     0.018294
      py      :     0.035780
 36 H s       :     0.812832  s :     0.812832
      pz      :     0.049508  p :     0.080927
      px      :     0.019084
      py      :     0.012335
 37 H s       :     0.814517  s :     0.814517
      pz      :     0.016251  p :     0.081032
      px      :     0.013012
      py      :     0.051769
 38 H s       :     0.816338  s :     0.816338
      pz      :     0.018136  p :     0.081652
      px      :     0.012422
      py      :     0.051095
 39 H s       :     0.813071  s :     0.813071
      pz      :     0.041210  p :     0.081034
      px      :     0.027307
      py      :     0.012518
 40 H s       :     0.813532  s :     0.813532
      pz      :     0.020358  p :     0.080832
      px      :     0.025575
      py      :     0.034899
 41 H s       :     0.812977  s :     0.812977
      pz      :     0.017851  p :     0.080947
      px      :     0.012227
      py      :     0.050869
 42 H s       :     0.817525  s :     0.817525
      pz      :     0.042480  p :     0.081152
      px      :     0.025700
      py      :     0.012972
 43 H s       :     0.813459  s :     0.813459
      pz      :     0.044493  p :     0.081004
      px      :     0.016802
      py      :     0.019710
 44 H s       :     0.812936  s :     0.812936
      pz      :     0.010227  p :     0.080955
      px      :     0.041240
      py      :     0.029489
 45 H s       :     0.813527  s :     0.813527
      pz      :     0.044459  p :     0.080925
      px      :     0.022174
      py      :     0.014292
 46 H s       :     0.812842  s :     0.812842
      pz      :     0.044768  p :     0.080895
      px      :     0.015923
      py      :     0.020203
 47 H s       :     0.818219  s :     0.818219
      pz      :     0.010566  p :     0.081478
      px      :     0.039721
      py      :     0.031190
 48 H s       :     0.815233  s :     0.815233
      pz      :     0.020757  p :     0.081748
      px      :     0.013948
      py      :     0.047043
 49 H s       :     0.813166  s :     0.813166
      pz      :     0.015920  p :     0.081224
      px      :     0.053144
      py      :     0.012160
 50 H s       :     0.814257  s :     0.814257
      pz      :     0.013629  p :     0.080203
      px      :     0.033098
      py      :     0.033477
 51 H s       :     0.813461  s :     0.813461
      pz      :     0.020896  p :     0.081135
      px      :     0.013348
      py      :     0.046890
 52 H s       :     0.819621  s :     0.819621
      pz      :     0.015340  p :     0.081850
      px      :     0.054078
      py      :     0.012433
 53 H s       :     0.816032  s :     0.816032
      pz      :     0.033209  p :     0.083174
      px      :     0.028891
      py      :     0.021074
 54 H s       :     0.837940  s :     0.837940
      pz      :     0.041776  p :     0.076034
      px      :     0.013891
      py      :     0.020367
 55 H s       :     0.838106  s :     0.838106
      pz      :     0.028945  p :     0.076044
      px      :     0.023731
      py      :     0.023368
 56 H s       :     0.812022  s :     0.812022
      pz      :     0.046317  p :     0.082514
      px      :     0.017091
      py      :     0.019106


                      *****************************
                      * MAYER POPULATION ANALYSIS *
                      *****************************

  NA   - Mulliken gross atomic population
  ZA   - Total nuclear charge
  QA   - Mulliken gross atomic charge
  VA   - Mayer's total valence
  BVA  - Mayer's bonded valence
  FA   - Mayer's free valence

  ATOM       NA         ZA         QA         VA         BVA        FA
  0 C      5.9724     6.0000     0.0276     3.7917     3.7917    -0.0000
  1 B      5.4990     5.0000    -0.4990     4.2287     4.2287    -0.0000
  2 C      5.9934     6.0000     0.0066     3.7827     3.7827     0.0000
  3 C      6.1932     6.0000    -0.1932     3.9654     3.9654    -0.0000
  4 C      6.0955     6.0000    -0.0955     3.8713     3.8713     0.0000
  5 C      6.1178     6.0000    -0.1178     3.8858     3.8858    -0.0000
  6 C      6.1012     6.0000    -0.1012     3.8392     3.8392    -0.0000
  7 C      6.1487     6.0000    -0.1487     3.9497     3.9497    -0.0000
  8 C      6.0091     6.0000    -0.0091     3.7787     3.7787     0.0000
  9 C      6.1655     6.0000    -0.1655     3.9521     3.9521    -0.0000
 10 C      6.1041     6.0000    -0.1041     3.8653     3.8653    -0.0000
 11 C      6.1259     6.0000    -0.1259     3.8909     3.8909     0.0000
 12 C      6.1071     6.0000    -0.1071     3.8441     3.8441     0.0000
 13 C      6.1321     6.0000    -0.1321     3.9298     3.9298     0.0000
 14 C      6.1394     6.0000    -0.1394     3.9258     3.9258    -0.0000
 15 C      6.0999     6.0000    -0.0999     3.8405     3.8405     0.0000
 16 C      6.1297     6.0000    -0.1297     3.8886     3.8886    -0.0000
 17 C      6.0983     6.0000    -0.0983     3.8610     3.8610     0.0000
 18 C      6.1689     6.0000    -0.1689     3.9295     3.9295    -0.0000
 19 O      8.2508     8.0000    -0.2508     2.3989     2.3989    -0.0000
 20 C      5.3986     6.0000     0.6014     3.7932     3.7932     0.0000
 21 C      5.9393     6.0000     0.0607     3.8944     3.8944    -0.0000
 22 C      6.1009     6.0000    -0.1009     3.8591     3.8591     0.0000
 23 C      6.1279     6.0000    -0.1279     3.8978     3.8978    -0.0000
 24 C      6.0697     6.0000    -0.0697     3.8720     3.8720    -0.0000
 25 C      6.1227     6.0000    -0.1227     3.8880     3.8880    -0.0000
 26 C      6.1189     6.0000    -0.1189     3.8547     3.8547     0.0000
 27 C      6.0201     6.0000    -0.0201     4.0382     4.0382     0.0000
 28 C      6.0831     6.0000    -0.0831     3.9402     3.9402    -0.0000
 29 C      5.9703     6.0000     0.0297     4.0308     4.0308     0.0000
 30 N      7.2990     7.0000    -0.2990     3.0831     3.0831    -0.0000
 31 C      5.9658     6.0000     0.0342     4.0368     4.0368    -0.0000
 32 C      6.1326     6.0000    -0.1326     3.9031     3.9031    -0.0000
 33 H      0.8787     1.0000     0.1213     0.9822     0.9822    -0.0000
 34 H      0.8754     1.0000     0.1246     0.9747     0.9747     0.0000
 35 H      0.8717     1.0000     0.1283     0.9730     0.9730    -0.0000
 36 H      0.8734     1.0000     0.1266     0.9734     0.9734    -0.0000
 37 H      0.8657     1.0000     0.1343     0.9752     0.9752    -0.0000
 38 H      0.8703     1.0000     0.1297     0.9740     0.9740     0.0000
 39 H      0.8729     1.0000     0.1271     0.9735     0.9735    -0.0000
 40 H      0.8708     1.0000     0.1292     0.9730     0.9730    -0.0000
 41 H      0.8729     1.0000     0.1271     0.9733     0.9733     0.0000
 42 H      0.8699     1.0000     0.1301     0.9771     0.9771     0.0000
 43 H      0.8628     1.0000     0.1372     0.9728     0.9728     0.0000
 44 H      0.8728     1.0000     0.1272     0.9735     0.9735     0.0000
 45 H      0.8709     1.0000     0.1291     0.9730     0.9730     0.0000
 46 H      0.8735     1.0000     0.1265     0.9735     0.9735     0.0000
 47 H      0.8666     1.0000     0.1334     0.9729     0.9729    -0.0000
 48 H      0.8744     1.0000     0.1256     0.9769     0.9769     0.0000
 49 H      0.8743     1.0000     0.1257     0.9737     0.9737    -0.0000
 50 H      0.8717     1.0000     0.1283     0.9727     0.9727    -0.0000
 51 H      0.8751     1.0000     0.1249     0.9736     0.9736    -0.0000
 52 H      0.8946     1.0000     0.1054     0.9895     0.9895     0.0000
 53 H      0.8982     1.0000     0.1018     0.9972     0.9972    -0.0000
 54 H      0.8842     1.0000     0.1158     0.9792     0.9792     0.0000
 55 H      0.8828     1.0000     0.1172     0.9793     0.9793    -0.0000
 56 H      0.8755     1.0000     0.1245     0.9828     0.9828    -0.0000

  Mayer bond orders larger than 0.100000
B(  0-C ,  1-B ) :   1.0344 B(  0-C , 14-C ) :   1.3543 B(  0-C , 18-C ) :   1.3358 
B(  1-B ,  2-C ) :   0.9757 B(  1-B ,  8-C ) :   0.9876 B(  1-B , 19-O ) :   0.6902 
B(  2-C ,  3-C ) :   1.3605 B(  2-C ,  7-C ) :   1.3580 B(  3-C ,  4-C ) :   1.3977 
B(  3-C , 33-H ) :   0.9578 B(  4-C ,  5-C ) :   1.3832 B(  4-C , 34-H ) :   0.9672 
B(  5-C ,  6-C ) :   1.3785 B(  5-C , 35-H ) :   0.9672 B(  6-C ,  7-C ) :   1.3845 
B(  6-C , 36-H ) :   0.9672 B(  7-C , 37-H ) :   0.9522 B(  8-C ,  9-C ) :   1.3765 
B(  8-C , 13-C ) :   1.3446 B(  9-C , 10-C ) :   1.3875 B(  9-C , 38-H ) :   0.9565 
B( 10-C , 11-C ) :   1.3975 B( 10-C , 39-H ) :   0.9655 B( 11-C , 12-C ) :   1.3790 
B( 11-C , 40-H ) :   0.9657 B( 12-C , 13-C ) :   1.3956 B( 12-C , 41-H ) :   0.9650 
B( 13-C , 42-H ) :   0.9496 B( 14-C , 15-C ) :   1.3869 B( 14-C , 43-H ) :   0.9491 
B( 15-C , 16-C ) :   1.3839 B( 15-C , 44-H ) :   0.9647 B( 16-C , 17-C ) :   1.3886 
B( 16-C , 45-H ) :   0.9664 B( 17-C , 18-C ) :   1.3914 B( 17-C , 46-H ) :   0.9666 
B( 18-C , 47-H ) :   0.9496 B( 19-O , 20-C ) :   1.5924 B( 20-C , 21-C ) :   1.0587 
B( 20-C , 27-C ) :   0.9548 B( 21-C , 22-C ) :   1.3620 B( 21-C , 26-C ) :   1.3193 
B( 22-C , 23-C ) :   1.3891 B( 22-C , 48-H ) :   0.9578 B( 23-C , 24-C ) :   1.3941 
B( 23-C , 49-H ) :   0.9621 B( 24-C , 25-C ) :   1.3699 B( 24-C , 50-H ) :   0.9645 
B( 25-C , 26-C ) :   1.4011 B( 25-C , 51-H ) :   0.9648 B( 26-C , 52-H ) :   0.9757 
B( 27-C , 28-C ) :   1.4170 B( 27-C , 32-C ) :   1.4095 B( 28-C , 29-C ) :   1.3962 
B( 28-C , 53-H ) :   0.9444 B( 29-C , 30-N ) :   1.4797 B( 29-C , 54-H ) :   0.9449 
B( 30-N , 31-C ) :   1.4803 B( 31-C , 32-C ) :   1.3949 B( 31-C , 55-H ) :   0.9452 
B( 32-C , 56-H ) :   0.9521 

-------
TIMINGS
-------

Total SCF time: 0 days 0 hours 0 min 6 sec 

Total time                  ....       6.626 sec
Sum of individual times     ....       6.236 sec  ( 94.1%)

Fock matrix formation       ....       0.000 sec  (  0.0%)
Diagonalization             ....       0.000 sec  (  0.0%)
Density matrix formation    ....       0.000 sec  (  0.0%)
Population analysis         ....       0.036 sec  (  0.5%)
Initial guess               ....       3.949 sec  ( 59.6%)
Orbital Transformation      ....       0.000 sec  (  0.0%)
Orbital Orthonormalization  ....       0.000 sec  (  0.0%)
DIIS solution               ....       0.000 sec  (  0.0%)
SOSCF solution              ....       0.000 sec  (  0.0%)

Maximum memory used throughout the entire SCF-calculation: 156.3 MB

-------------------------   --------------------
FINAL SINGLE POINT ENERGY         0.000000000000
-------------------------   --------------------


                            ***************************************
                            *     ORCA property calculations      *
                            ***************************************

                                    ---------------------
                                    Active property flags
                                    ---------------------
   (+) Dipole Moment


------------------------------------------------------------------------------
                       ORCA ELECTRIC PROPERTIES CALCULATION
------------------------------------------------------------------------------

Dipole Moment Calculation                       ... on
Quadrupole Moment Calculation                   ... off
Polarizability Calculation                      ... off
GBWName                                         ... START_a003_b004.gbw
Electron density                                ... START_a003_b004.scfp
The origin for moment calculation is the CENTER OF MASS  = ( 0.021139,  0.005715 -0.045470)

-------------
DIPOLE MOMENT
-------------
                                X             Y             Z
Electronic contribution:     -5.24206       0.44497      -1.78809
Nuclear contribution   :      1.74417      -1.97662       1.84759
                        -----------------------------------------
Total Dipole Moment    :     -3.49789      -1.53165       0.05950
                        -----------------------------------------
Magnitude (a.u.)       :      3.81899
Magnitude (Debye)      :      9.70711



--------------------
Rotational spectrum 
--------------------
 
Rotational constants in cm-1:     0.005065     0.004362     0.003523 
Rotational constants in MHz :   151.832462   130.756332   105.625327 

 Dipole components along the rotational axes: 
x,y,z [a.u.] :    -3.398428    -1.623683    -0.631714 
x,y,z [Debye]:    -8.638118    -4.127073    -1.605688 

 

Timings for individual modules:

Sum of individual times         ...        7.460 sec (=   0.124 min)
GTO integral calculation        ...        0.804 sec (=   0.013 min)  10.8 %
SCF iterations                  ...        6.656 sec (=   0.111 min)  89.2 %
                             ****ORCA TERMINATED NORMALLY****
TOTAL RUN TIME: 0 days 0 hours 0 minutes 7 seconds 736 msec
